 Entering Gaussian System, Link 0=/home/software/apps/gaussian/g16/g16
 Initial command:
 /home/software/apps/gaussian/g16/l1.exe "/nfs/scratch/humepa/Gau-41013.inp" -scrdir="/nfs/scratch/humepa/"
 Entering Link 1 = /home/software/apps/gaussian/g16/l1.exe PID=     41014.
  
 Copyright (c) 1988-2019, Gaussian, Inc.  All Rights Reserved.
  
 This is part of the Gaussian(R) 16 program.  It is based on
 the Gaussian(R) 09 system (copyright 2009, Gaussian, Inc.),
 the Gaussian(R) 03 system (copyright 2003, Gaussian, Inc.),
 the Gaussian(R) 98 system (copyright 1998, Gaussian, Inc.),
 the Gaussian(R) 94 system (copyright 1995, Gaussian, Inc.),
 the Gaussian 92(TM) system (copyright 1992, Gaussian, Inc.),
 the Gaussian 90(TM) system (copyright 1990, Gaussian, Inc.),
 the Gaussian 88(TM) system (copyright 1988, Gaussian, Inc.),
 the Gaussian 86(TM) system (copyright 1986, Carnegie Mellon
 University), and the Gaussian 82(TM) system (copyright 1983,
 Carnegie Mellon University). Gaussian is a federally registered
 trademark of Gaussian, Inc.
  
 This software contains proprietary and confidential information,
 including trade secrets, belonging to Gaussian, Inc.
  
 This software is provided under written license and may be
 used, copied, transmitted, or stored only in accord with that
 written license.
  
 The following legend is applicable only to US Government
 contracts under FAR:
  
                    RESTRICTED RIGHTS LEGEND
  
 Use, reproduction and disclosure by the US Government is
 subject to restrictions as set forth in subparagraphs (a)
 and (c) of the Commercial Computer Software - Restricted
 Rights clause in FAR 52.227-19.
  
 Gaussian, Inc.
 340 Quinnipiac St., Bldg. 40, Wallingford CT 06492
  
  
 ---------------------------------------------------------------
 Warning -- This program may not be used in any manner that
 competes with the business of Gaussian, Inc. or will provide
 assistance to any competitor of Gaussian, Inc.  The licensee
 of this program is prohibited from giving any competitor of
 Gaussian, Inc. access to this program.  By using this program,
 the user acknowledges that Gaussian, Inc. is engaged in the
 business of creating and licensing software in the field of
 computational chemistry and represents and warrants to the
 licensee that it is not a competitor of Gaussian, Inc. and that
 it will not use this program in any manner prohibited above.
 ---------------------------------------------------------------
  

 Cite this work as:
 Gaussian 16, Revision C.01,
 M. J. Frisch, G. W. Trucks, H. B. Schlegel, G. E. Scuseria, 
 M. A. Robb, J. R. Cheeseman, G. Scalmani, V. Barone, 
 G. A. Petersson, H. Nakatsuji, X. Li, M. Caricato, A. V. Marenich, 
 J. Bloino, B. G. Janesko, R. Gomperts, B. Mennucci, H. P. Hratchian, 
 J. V. Ortiz, A. F. Izmaylov, J. L. Sonnenberg, D. Williams-Young, 
 F. Ding, F. Lipparini, F. Egidi, J. Goings, B. Peng, A. Petrone, 
 T. Henderson, D. Ranasinghe, V. G. Zakrzewski, J. Gao, N. Rega, 
 G. Zheng, W. Liang, M. Hada, M. Ehara, K. Toyota, R. Fukuda, 
 J. Hasegawa, M. Ishida, T. Nakajima, Y. Honda, O. Kitao, H. Nakai, 
 T. Vreven, K. Throssell, J. A. Montgomery, Jr., J. E. Peralta, 
 F. Ogliaro, M. J. Bearpark, J. J. Heyd, E. N. Brothers, K. N. Kudin, 
 V. N. Staroverov, T. A. Keith, R. Kobayashi, J. Normand, 
 K. Raghavachari, A. P. Rendell, J. C. Burant, S. S. Iyengar, 
 J. Tomasi, M. Cossi, J. M. Millam, M. Klene, C. Adamo, R. Cammi, 
 J. W. Ochterski, R. L. Martin, K. Morokuma, O. Farkas, 
 J. B. Foresman, and D. J. Fox, Gaussian, Inc., Wallingford CT, 2019.
 
 ******************************************
 Gaussian 16:  ES64L-G16RevC.01  3-Jul-2019
                23-Oct-2020 
 ******************************************
 %nprocshared=16
 Will use up to   16 processors via shared memory.
 %mem=60GB
 %chk=K2A.chk
 ----------------------------------------------------------------------
 # opt cam-b3lyp/6-31+G(d,p) freq=raman int=(superfine,acc2e=12) scrf=(
 solvent=water)
 ----------------------------------------------------------------------
 1/18=20,19=15,26=6,38=1/1,3;
 2/9=110,12=2,17=6,18=5,40=1/2;
 3/5=1,6=6,7=111,11=2,25=1,27=12,30=1,70=2201,71=1,72=1,74=-40,75=-7/1,2,3;
 4//1;
 5/5=2,38=5,53=1,87=12/2;
 6/7=2,8=2,9=2,10=2,28=1,87=12/1;
 7/87=12/1,2,3,16;
 1/18=20,19=15,26=6/3(2);
 2/9=110/2;
 99//99;
 2/9=110/2;
 3/5=1,6=6,7=111,11=2,25=1,27=12,30=1,70=2205,71=1,72=1,74=-40,75=-7/1,2,3;
 4/5=5,16=3,69=1/1;
 5/5=2,38=5,53=1,87=12/2;
 7/87=12/1,2,3,16;
 1/18=20,19=15,26=6/3(-5);
 2/9=110/2;
 6/7=2,8=2,9=2,10=2,19=2,28=1,87=12/1;
 99/9=1/99;
 --------
 K2Araman
 --------
 Symbolic Z-matrix:
 Charge = -1 Multiplicity = 1
 C                    -0.15317  -0.63652  -0.00002 
 C                    -0.16649   0.77841  -0.00003 
 C                    -1.40101   1.4609   -0.00001 
 C                    -2.55987   0.7263    0.00001 
 C                    -2.52086  -0.69501   0.00001 
 C                    -1.33496  -1.39285  0. 
 C                     1.96676   0.06911  -0.00006 
 C                     1.19313   1.20568  -0.00005 
 H                    -1.45305   2.54409  -0.00001 
 H                    -1.32144  -2.47813  0. 
 H                     1.56425   2.21987  -0.00006 
 O                    -3.77342   1.35439   0.00003 
 H                    -4.47258   0.6845    0.00005 
 O                    -3.75785  -1.28097   0.00003 
 H                    -3.69421  -2.24416   0.00006 
 N                     1.15185  -1.0443   -0.00004 
 H                     1.49652  -1.99255  -0.00005 
 C                     3.41036  -0.1123   -0.00009 
 O                     3.95898  -1.20151   0.00006 
 O                     4.09396   1.0437    0.00009 
 

 GradGradGradGradGradGradGradGradGradGradGradGradGradGradGradGradGradGrad
 Berny optimization.
 Initialization pass.
                           ----------------------------
                           !    Initial Parameters    !
                           ! (Angstroms and Degrees)  !
 --------------------------                            --------------------------
 ! Name  Definition              Value          Derivative Info.                !
 --------------------------------------------------------------------------------
 ! R1    R(1,2)                  1.415          estimate D2E/DX2                !
 ! R2    R(1,6)                  1.4031         estimate D2E/DX2                !
 ! R3    R(1,16)                 1.3672         estimate D2E/DX2                !
 ! R4    R(2,3)                  1.4106         estimate D2E/DX2                !
 ! R5    R(2,8)                  1.4252         estimate D2E/DX2                !
 ! R6    R(3,4)                  1.3721         estimate D2E/DX2                !
 ! R7    R(3,9)                  1.0844         estimate D2E/DX2                !
 ! R8    R(4,5)                  1.4218         estimate D2E/DX2                !
 ! R9    R(4,12)                 1.3665         estimate D2E/DX2                !
 ! R10   R(5,6)                  1.376          estimate D2E/DX2                !
 ! R11   R(5,14)                 1.3688         estimate D2E/DX2                !
 ! R12   R(6,10)                 1.0854         estimate D2E/DX2                !
 ! R13   R(7,8)                  1.3749         estimate D2E/DX2                !
 ! R14   R(7,16)                 1.3798         estimate D2E/DX2                !
 ! R15   R(7,18)                 1.455          estimate D2E/DX2                !
 ! R16   R(8,11)                 1.08           estimate D2E/DX2                !
 ! R17   R(12,13)                0.9683         estimate D2E/DX2                !
 ! R18   R(14,15)                0.9653         estimate D2E/DX2                !
 ! R19   R(16,17)                1.0089         estimate D2E/DX2                !
 ! R20   R(18,19)                1.2196         estimate D2E/DX2                !
 ! R21   R(18,20)                1.343          estimate D2E/DX2                !
 ! A1    A(2,1,6)              122.0795         estimate D2E/DX2                !
 ! A2    A(2,1,16)             107.8917         estimate D2E/DX2                !
 ! A3    A(6,1,16)             130.0287         estimate D2E/DX2                !
 ! A4    A(1,2,3)              119.4747         estimate D2E/DX2                !
 ! A5    A(1,2,8)              106.9068         estimate D2E/DX2                !
 ! A6    A(3,2,8)              133.6185         estimate D2E/DX2                !
 ! A7    A(2,3,4)              118.694          estimate D2E/DX2                !
 ! A8    A(2,3,9)              121.6861         estimate D2E/DX2                !
 ! A9    A(4,3,9)              119.6199         estimate D2E/DX2                !
 ! A10   A(3,4,5)              120.7983         estimate D2E/DX2                !
 ! A11   A(3,4,12)             120.2651         estimate D2E/DX2                !
 ! A12   A(5,4,12)             118.9366         estimate D2E/DX2                !
 ! A13   A(4,5,6)              122.0467         estimate D2E/DX2                !
 ! A14   A(4,5,14)             113.7749         estimate D2E/DX2                !
 ! A15   A(6,5,14)             124.1784         estimate D2E/DX2                !
 ! A16   A(1,6,5)              116.9067         estimate D2E/DX2                !
 ! A17   A(1,6,10)             121.9051         estimate D2E/DX2                !
 ! A18   A(5,6,10)             121.1881         estimate D2E/DX2                !
 ! A19   A(8,7,16)             109.5575         estimate D2E/DX2                !
 ! A20   A(8,7,18)             131.4044         estimate D2E/DX2                !
 ! A21   A(16,7,18)            119.038          estimate D2E/DX2                !
 ! A22   A(2,8,7)              106.7959         estimate D2E/DX2                !
 ! A23   A(2,8,11)             127.5451         estimate D2E/DX2                !
 ! A24   A(7,8,11)             125.659          estimate D2E/DX2                !
 ! A25   A(4,12,13)            108.8604         estimate D2E/DX2                !
 ! A26   A(5,14,15)            111.5669         estimate D2E/DX2                !
 ! A27   A(1,16,7)             108.8481         estimate D2E/DX2                !
 ! A28   A(1,16,17)            127.3278         estimate D2E/DX2                !
 ! A29   A(7,16,17)            123.8241         estimate D2E/DX2                !
 ! A30   A(7,18,19)            123.8962         estimate D2E/DX2                !
 ! A31   A(7,18,20)            113.4352         estimate D2E/DX2                !
 ! A32   A(19,18,20)           122.6685         estimate D2E/DX2                !
 ! D1    D(6,1,2,3)              0.0001         estimate D2E/DX2                !
 ! D2    D(6,1,2,8)           -179.9999         estimate D2E/DX2                !
 ! D3    D(16,1,2,3)           180.0            estimate D2E/DX2                !
 ! D4    D(16,1,2,8)            -0.0001         estimate D2E/DX2                !
 ! D5    D(2,1,6,5)             -0.0001         estimate D2E/DX2                !
 ! D6    D(2,1,6,10)           179.9998         estimate D2E/DX2                !
 ! D7    D(16,1,6,5)          -179.9999         estimate D2E/DX2                !
 ! D8    D(16,1,6,10)            0.0            estimate D2E/DX2                !
 ! D9    D(2,1,16,7)            -0.0003         estimate D2E/DX2                !
 ! D10   D(2,1,16,17)         -179.9996         estimate D2E/DX2                !
 ! D11   D(6,1,16,7)           179.9996         estimate D2E/DX2                !
 ! D12   D(6,1,16,17)            0.0002         estimate D2E/DX2                !
 ! D13   D(1,2,3,4)              0.0            estimate D2E/DX2                !
 ! D14   D(1,2,3,9)            179.9999         estimate D2E/DX2                !
 ! D15   D(8,2,3,4)           -180.0            estimate D2E/DX2                !
 ! D16   D(8,2,3,9)             -0.0001         estimate D2E/DX2                !
 ! D17   D(1,2,8,7)              0.0004         estimate D2E/DX2                !
 ! D18   D(1,2,8,11)          -179.9999         estimate D2E/DX2                !
 ! D19   D(3,2,8,7)           -179.9997         estimate D2E/DX2                !
 ! D20   D(3,2,8,11)             0.0            estimate D2E/DX2                !
 ! D21   D(2,3,4,5)             -0.0001         estimate D2E/DX2                !
 ! D22   D(2,3,4,12)           179.9999         estimate D2E/DX2                !
 ! D23   D(9,3,4,5)           -180.0            estimate D2E/DX2                !
 ! D24   D(9,3,4,12)             0.0001         estimate D2E/DX2                !
 ! D25   D(3,4,5,6)              0.0001         estimate D2E/DX2                !
 ! D26   D(3,4,5,14)          -179.9999         estimate D2E/DX2                !
 ! D27   D(12,4,5,6)          -179.9999         estimate D2E/DX2                !
 ! D28   D(12,4,5,14)            0.0001         estimate D2E/DX2                !
 ! D29   D(3,4,12,13)         -179.9994         estimate D2E/DX2                !
 ! D30   D(5,4,12,13)            0.0006         estimate D2E/DX2                !
 ! D31   D(4,5,6,1)              0.0            estimate D2E/DX2                !
 ! D32   D(4,5,6,10)          -180.0            estimate D2E/DX2                !
 ! D33   D(14,5,6,1)           180.0            estimate D2E/DX2                !
 ! D34   D(14,5,6,10)            0.0            estimate D2E/DX2                !
 ! D35   D(4,5,14,15)         -179.9979         estimate D2E/DX2                !
 ! D36   D(6,5,14,15)            0.0021         estimate D2E/DX2                !
 ! D37   D(16,7,8,2)            -0.0006         estimate D2E/DX2                !
 ! D38   D(16,7,8,11)          179.9998         estimate D2E/DX2                !
 ! D39   D(18,7,8,2)           179.9997         estimate D2E/DX2                !
 ! D40   D(18,7,8,11)            0.0            estimate D2E/DX2                !
 ! D41   D(8,7,16,1)             0.0005         estimate D2E/DX2                !
 ! D42   D(8,7,16,17)          179.9999         estimate D2E/DX2                !
 ! D43   D(18,7,16,1)         -179.9997         estimate D2E/DX2                !
 ! D44   D(18,7,16,17)          -0.0003         estimate D2E/DX2                !
 ! D45   D(8,7,18,19)          179.9906         estimate D2E/DX2                !
 ! D46   D(8,7,18,20)            0.009          estimate D2E/DX2                !
 ! D47   D(16,7,18,19)          -0.0091         estimate D2E/DX2                !
 ! D48   D(16,7,18,20)        -179.9907         estimate D2E/DX2                !
 --------------------------------------------------------------------------------
 Trust Radius=3.00D-01 FncErr=5.00D-06 GrdErr=5.00D-06 EigMax=2.50D+02 EigMin=1.00D-04
 Number of steps in this run=    111 maximum allowed number of steps=    120.
 GradGradGradGradGradGradGradGradGradGradGradGradGradGradGradGradGradGrad

                          Input orientation:                          
 ---------------------------------------------------------------------
 Center     Atomic      Atomic             Coordinates (Angstroms)
 Number     Number       Type             X           Y           Z
 ---------------------------------------------------------------------
      1          6           0       -0.153170   -0.636517   -0.000022
      2          6           0       -0.166486    0.778406   -0.000027
      3          6           0       -1.401005    1.460896   -0.000011
      4          6           0       -2.559870    0.726296    0.000009
      5          6           0       -2.520860   -0.695006    0.000011
      6          6           0       -1.334957   -1.392846   -0.000004
      7          6           0        1.966755    0.069110   -0.000064
      8          6           0        1.193128    1.205681   -0.000048
      9          1           0       -1.453045    2.544093   -0.000012
     10          1           0       -1.321439   -2.478129   -0.000003
     11          1           0        1.564252    2.219874   -0.000056
     12          8           0       -3.773420    1.354386    0.000026
     13          1           0       -4.472581    0.684497    0.000048
     14          8           0       -3.757849   -1.280972    0.000029
     15          1           0       -3.694209   -2.244161    0.000062
     16          7           0        1.151846   -1.044297   -0.000041
     17          1           0        1.496517   -1.992546   -0.000048
     18          6           0        3.410361   -0.112302   -0.000094
     19          8           0        3.958978   -1.201511    0.000060
     20          8           0        4.093957    1.043696    0.000085
 ---------------------------------------------------------------------
                    Distance matrix (angstroms):
                    1          2          3          4          5
     1  C    0.000000
     2  C    1.414986   0.000000
     3  C    2.440540   1.410613   0.000000
     4  C    2.765766   2.393951   1.372081   0.000000
     5  C    2.368412   2.777412   2.429401   1.421837   0.000000
     6  C    1.403087   2.465697   2.854506   2.447688   1.375989
     7  C    2.234276   2.248070   3.644019   4.574082   4.552204
     8  C    2.281712   1.425172   2.606657   3.783491   4.172088
     9  H    3.435979   2.184693   1.084446   2.128250   3.410571
    10  H    2.180914   3.455277   3.939829   3.435411   2.148985
    11  H    3.332943   2.252395   3.060849   4.386246   5.018433
    12  O    4.131574   3.652633   2.374805   1.366456   2.401856
    13  H    4.516900   4.307119   3.168182   1.913168   2.390030
    14  O    3.661835   4.139919   3.615599   2.337580   1.368758
    15  H    3.888891   4.645508   4.357319   3.179676   1.943355
    16  N    1.367242   2.249499   3.576736   4.112400   3.689278
    17  H    2.135482   3.231680   4.507981   4.883275   4.221721
    18  C    3.601882   3.686081   5.062035   6.028839   5.959776
    19  O    4.150781   4.575973   5.984800   6.797928   6.499604
    20  O    4.567407   4.268695   5.510777   6.661393   6.839509
                    6          7          8          9         10
     6  C    0.000000
     7  C    3.610903   0.000000
     8  C    3.625404   1.374879   0.000000
     9  H    3.938710   4.221442   2.965397   0.000000
    10  H    1.085367   4.159405   4.460213   5.023946   0.000000
    11  H    4.632187   2.188103   1.079963   3.034666   5.513478
    12  O    3.673334   5.882308   4.968774   2.607593   4.549767
    13  H    3.762983   6.468674   5.689630   3.546223   4.464516
    14  O    2.425473   5.881650   5.540362   4.465786   2.714642
    15  H    2.508148   6.115369   5.982263   5.286794   2.384277
    16  N    2.511110   1.379765   2.250357   4.434185   2.858848
    17  H    2.894285   2.114604   3.212585   5.411193   2.859487
    18  C    4.915062   1.454960   2.579380   5.541584   5.290281
    19  O    5.297392   2.362928   3.666674   6.581758   5.432546
    20  O    5.950617   2.339830   2.905348   5.746340   6.459858
                   11         12         13         14         15
    11  H    0.000000
    12  O    5.407385   0.000000
    13  H    6.229024   0.968286   0.000000
    14  O    6.370297   2.635404   2.091390   0.000000
    15  H    6.897755   3.599419   3.030330   0.965289   0.000000
    16  N    3.290120   5.478314   5.884123   4.915396   4.992386
    17  H    4.212965   6.242931   6.541918   5.302330   5.196821
    18  C    2.974418   7.331977   7.923109   7.262852   7.417529
    19  O    4.176193   8.143868   8.639920   7.717236   7.723884
    20  O    2.789767   7.873509   8.574065   8.188708   8.453729
                   16         17         18         19         20
    16  N    0.000000
    17  H    1.008947   0.000000
    18  C    2.443257   2.682931   0.000000
    19  O    2.811531   2.586397   1.219572   0.000000
    20  O    3.607732   3.995680   1.342995   2.249261   0.000000
 Stoichiometry    C9H6NO4(1-)
 Framework group  C1[X(C9H6NO4)]
 Deg. of freedom    54
 Full point group                 C1      NOp   1
 Largest Abelian subgroup         C1      NOp   1
 Largest concise Abelian subgroup C1      NOp   1
                         Standard orientation:                         
 ---------------------------------------------------------------------
 Center     Atomic      Atomic             Coordinates (Angstroms)
 Number     Number       Type             X           Y           Z
 ---------------------------------------------------------------------
      1          6           0       -0.097910    0.628831    0.000020
      2          6           0       -0.121001   -0.785966    0.000025
      3          6           0       -1.360205   -1.459911    0.000009
      4          6           0       -2.513968   -0.717323   -0.000011
      5          6           0       -2.465140    0.703676   -0.000013
      6          6           0       -1.274444    1.393306    0.000002
      7          6           0        2.017090   -0.091424    0.000062
      8          6           0        1.235629   -1.222624    0.000046
      9          1           0       -1.419727   -2.542723    0.000010
     10          1           0       -1.253429    2.478470    0.000001
     11          1           0        1.599738   -2.239356    0.000054
     12          8           0       -3.731828   -1.337014   -0.000028
     13          1           0       -4.426344   -0.662311   -0.000050
     14          8           0       -3.698051    1.298173   -0.000031
     15          1           0       -3.627758    2.260900   -0.000064
     16          7           0        1.209892    1.027586    0.000039
     17          1           0        1.561105    1.973431    0.000046
     18          6           0        3.461914    0.080010    0.000092
     19          8           0        4.018043    1.165403   -0.000062
     20          8           0        4.137508   -1.080683   -0.000087
 ---------------------------------------------------------------------
 Rotational constants (GHZ):           2.2045116           0.3516561           0.3032782
 Standard basis: 6-31+G(d,p) (6D, 7F)
 There are   296 symmetry adapted cartesian basis functions of A   symmetry.
 There are   296 symmetry adapted basis functions of A   symmetry.
   296 basis functions,   490 primitive gaussians,   296 cartesian basis functions
    50 alpha electrons       50 beta electrons
       nuclear repulsion energy       826.3193680383 Hartrees.
 NAtoms=   20 NActive=   20 NUniq=   20 SFac= 1.00D+00 NAtFMM=   60 NAOKFM=F Big=F
 Integral buffers will be    131072 words long.
 Raffenetti 2 integral format.
 Two-electron integral symmetry is turned on.
 Force PCM accuracy= 1.00D-12.
 ------------------------------------------------------------------------------
 Polarizable Continuum Model (PCM)
 =================================
 Model                : PCM.
 Atomic radii         : UFF (Universal Force Field).
 Polarization charges : Total charges.
 Charge compensation  : None.
 Solution method      : On-the-fly selection.
 Cavity type          : Scaled VdW (van der Waals Surface) (Alpha=1.100).
 Cavity algorithm     : GePol (No added spheres)
                        Default sphere list used, NSphG=   20.
                        Lebedev-Laikov grids with approx.  5.0 points / Ang**2.
                        Smoothing algorithm: York/Karplus (Gamma=1.0000).
                        Polarization charges: spherical gaussians, with
                                              point-specific exponents (IZeta= 3).
                        Self-potential: point-specific (ISelfS= 7).
                        Self-field    : sphere-specific E.n sum rule (ISelfD= 2).
 1st derivatives      : Analytical E(r).r(x)/FMM algorithm (CHGder, D1EAlg=3).
                        Cavity 1st derivative terms included.
 Solvent              : Water, Eps=  78.355300 Eps(inf)=   1.777849
 ------------------------------------------------------------------------------
 Spheres list:
 ISph  on   Nord     Re0    Alpha      Xe            Ye            Ze
    1   C      1    1.9255  1.100     -0.097910      0.628831      0.000020
    2   C      2    1.9255  1.100     -0.121001     -0.785966      0.000025
    3   C      3    1.9255  1.100     -1.360205     -1.459911      0.000009
    4   C      4    1.9255  1.100     -2.513968     -0.717323     -0.000011
    5   C      5    1.9255  1.100     -2.465140      0.703676     -0.000013
    6   C      6    1.9255  1.100     -1.274444      1.393306      0.000002
    7   C      7    1.9255  1.100      2.017090     -0.091424      0.000062
    8   C      8    1.9255  1.100      1.235629     -1.222624      0.000046
    9   H      9    1.4430  1.100     -1.419727     -2.542723      0.000010
   10   H     10    1.4430  1.100     -1.253429      2.478470      0.000001
   11   H     11    1.4430  1.100      1.599738     -2.239356      0.000054
   12   O     12    1.7500  1.100     -3.731828     -1.337014     -0.000028
   13   H     13    1.4430  1.100     -4.426344     -0.662311     -0.000050
   14   O     14    1.7500  1.100     -3.698051      1.298173     -0.000031
   15   H     15    1.4430  1.100     -3.627758      2.260900     -0.000064
   16   N     16    1.8300  1.100      1.209892      1.027586      0.000039
   17   H     17    1.4430  1.100      1.561105      1.973431      0.000046
   18   C     18    1.9255  1.100      3.461914      0.080010      0.000092
   19   O     19    1.7500  1.100      4.018043      1.165403     -0.000062
   20   O     20    1.7500  1.100      4.137508     -1.080683     -0.000087
 ------------------------------------------------------------------------------
 One-electron integrals computed using PRISM.
 NBasis=   296 RedAO= T EigKep=  1.45D-06  NBF=   296
 NBsUse=   295 1.00D-06 EigRej=  8.23D-07 NBFU=   295
 ExpMin= 4.38D-02 ExpMax= 5.48D+03 ExpMxC= 8.25D+02 IAcc=3 IRadAn=         7 AccDes= 0.00D+00
 Harris functional with IExCor=20419 and IRadAn=       7 diagonalized for initial guess.
 HarFok:  IExCor=20419 AccDes= 0.00D+00 IRadAn=         7 IDoV= 1 UseB2=F ITyADJ=14
 ICtDFT=  3500011 ScaDFX=  1.000000  1.000000  1.000000  1.000000
 FoFCou: FMM=F IPFlag=           0 FMFlag=      100000 FMFlg1=           0
         NFxFlg=           0 DoJE=T BraDBF=F KetDBF=T FulRan=T
         wScrn=  0.000000 ICntrl=       500 IOpCl=  0 I1Cent=   200000004 NGrid=           0
         NMat0=    1 NMatS0=      1 NMatT0=    0 NMatD0=    1 NMtDS0=    0 NMtDT0=    0
 Petite list used in FoFCou.
 Requested convergence on RMS density matrix=1.00D-08 within 128 cycles.
 Requested convergence on MAX density matrix=1.00D-06.
 Requested convergence on             energy=1.00D-06.
 No special actions if energy rises.
 Inv3:  Mode=1 IEnd=    10002828.
 Iteration    1 A*A^-1 deviation from unit magnitude is 6.99D-15 for    235.
 Iteration    1 A*A^-1 deviation from orthogonality  is 2.22D-15 for   1821   1795.
 Iteration    1 A^-1*A deviation from unit magnitude is 7.22D-15 for    235.
 Iteration    1 A^-1*A deviation from orthogonality  is 2.06D-15 for   1644   1404.
 Error on total polarization charges =  0.02359
 SCF Done:  E(RCAM-B3LYP) =  -702.126479395     A.U. after   16 cycles
            NFock= 16  Conv=0.47D-08     -V/T= 2.0088

 **********************************************************************

            Population analysis using the SCF Density.

 **********************************************************************

 Orbital symmetries:
       Occupied  (A) (A) (A) (A) (A) (A) (A) (A) (A) (A) (A) (A)
                 (A) (A) (A) (A) (A) (A) (A) (A) (A) (A) (A) (A)
                 (A) (A) (A) (A) (A) (A) (A) (A) (A) (A) (A) (A)
                 (A) (A) (A) (A) (A) (A) (A) (A) (A) (A) (A) (A)
                 (A) (A)
       Virtual   (A) (A) (A) (A) (A) (A) (A) (A) (A) (A) (A) (A)
                 (A) (A) (A) (A) (A) (A) (A) (A) (A) (A) (A) (A)
                 (A) (A) (A) (A) (A) (A) (A) (A) (A) (A) (A) (A)
                 (A) (A) (A) (A) (A) (A) (A) (A) (A) (A) (A) (A)
                 (A) (A) (A) (A) (A) (A) (A) (A) (A) (A) (A) (A)
                 (A) (A) (A) (A) (A) (A) (A) (A) (A) (A) (A) (A)
                 (A) (A) (A) (A) (A) (A) (A) (A) (A) (A) (A) (A)
                 (A) (A) (A) (A) (A) (A) (A) (A) (A) (A) (A) (A)
                 (A) (A) (A) (A) (A) (A) (A) (A) (A) (A) (A) (A)
                 (A) (A) (A) (A) (A) (A) (A) (A) (A) (A) (A) (A)
                 (A) (A) (A) (A) (A) (A) (A) (A) (A) (A) (A) (A)
                 (A) (A) (A) (A) (A) (A) (A) (A) (A) (A) (A) (A)
                 (A) (A) (A) (A) (A) (A) (A) (A) (A) (A) (A) (A)
                 (A) (A) (A) (A) (A) (A) (A) (A) (A) (A) (A) (A)
                 (A) (A) (A) (A) (A) (A) (A) (A) (A) (A) (A) (A)
                 (A) (A) (A) (A) (A) (A) (A) (A) (A) (A) (A) (A)
                 (A) (A) (A) (A) (A) (A) (A) (A) (A) (A) (A) (A)
                 (A) (A) (A) (A) (A) (A) (A) (A) (A) (A) (A) (A)
                 (A) (A) (A) (A) (A) (A) (A) (A) (A) (A) (A) (A)
                 (A) (A) (A) (A) (A) (A) (A) (A) (A) (A) (A) (A)
                 (A) (A) (A) (A) (A)
 The electronic state is 1-A.
 Alpha  occ. eigenvalues --  -19.27255 -19.25848 -19.17851 -19.14987 -14.44848
 Alpha  occ. eigenvalues --  -10.35063 -10.33320 -10.32386 -10.29833 -10.28721
 Alpha  occ. eigenvalues --  -10.27200 -10.26487 -10.26282 -10.25142  -1.16737
 Alpha  occ. eigenvalues --   -1.13514  -1.11336  -1.06362  -0.98681  -0.92973
 Alpha  occ. eigenvalues --   -0.86765  -0.82373  -0.80638  -0.73539  -0.69051
 Alpha  occ. eigenvalues --   -0.67672  -0.64052  -0.62308  -0.60190  -0.55895
 Alpha  occ. eigenvalues --   -0.54335  -0.51991  -0.51479  -0.50797  -0.49703
 Alpha  occ. eigenvalues --   -0.49400  -0.47686  -0.46185  -0.45270  -0.45217
 Alpha  occ. eigenvalues --   -0.44753  -0.44473  -0.41160  -0.36857  -0.34043
 Alpha  occ. eigenvalues --   -0.31753  -0.30439  -0.28691  -0.26118  -0.25145
 Alpha virt. eigenvalues --    0.00958   0.02794   0.03985   0.04750   0.05200
 Alpha virt. eigenvalues --    0.06243   0.06292   0.07557   0.07663   0.08727
 Alpha virt. eigenvalues --    0.09214   0.09276   0.09622   0.10483   0.10708
 Alpha virt. eigenvalues --    0.12155   0.12770   0.12799   0.14350   0.15353
 Alpha virt. eigenvalues --    0.15563   0.16456   0.16673   0.17978   0.18019
 Alpha virt. eigenvalues --    0.19320   0.19957   0.20120   0.20668   0.21017
 Alpha virt. eigenvalues --    0.21040   0.22260   0.22512   0.22650   0.23282
 Alpha virt. eigenvalues --    0.24432   0.24771   0.25354   0.25885   0.25957
 Alpha virt. eigenvalues --    0.26494   0.27646   0.27977   0.28429   0.28849
 Alpha virt. eigenvalues --    0.29720   0.29835   0.30302   0.30633   0.30839
 Alpha virt. eigenvalues --    0.31533   0.32867   0.33176   0.33976   0.34641
 Alpha virt. eigenvalues --    0.35135   0.35524   0.35726   0.35726   0.36951
 Alpha virt. eigenvalues --    0.37999   0.38353   0.38802   0.39588   0.40913
 Alpha virt. eigenvalues --    0.41756   0.42120   0.42756   0.44326   0.46010
 Alpha virt. eigenvalues --    0.46900   0.47328   0.50248   0.51261   0.53269
 Alpha virt. eigenvalues --    0.53624   0.55236   0.62116   0.63620   0.70590
 Alpha virt. eigenvalues --    0.70866   0.73609   0.76387   0.76929   0.77490
 Alpha virt. eigenvalues --    0.79067   0.79304   0.80700   0.80978   0.81117
 Alpha virt. eigenvalues --    0.85066   0.85102   0.88156   0.88170   0.90845
 Alpha virt. eigenvalues --    0.91794   0.92192   0.94816   0.95828   0.97001
 Alpha virt. eigenvalues --    0.99373   1.01805   1.03887   1.08307   1.09861
 Alpha virt. eigenvalues --    1.10391   1.11246   1.12076   1.13230   1.15043
 Alpha virt. eigenvalues --    1.16608   1.18828   1.20833   1.22419   1.22691
 Alpha virt. eigenvalues --    1.23414   1.25911   1.27176   1.28055   1.28200
 Alpha virt. eigenvalues --    1.29948   1.31362   1.32999   1.33401   1.34700
 Alpha virt. eigenvalues --    1.35747   1.37382   1.38669   1.39223   1.39812
 Alpha virt. eigenvalues --    1.42038   1.42566   1.43126   1.43543   1.44942
 Alpha virt. eigenvalues --    1.45340   1.46682   1.46756   1.48316   1.48337
 Alpha virt. eigenvalues --    1.48471   1.52990   1.55722   1.56457   1.61755
 Alpha virt. eigenvalues --    1.64064   1.65075   1.66478   1.68299   1.75966
 Alpha virt. eigenvalues --    1.79826   1.82445   1.83944   1.87744   1.88788
 Alpha virt. eigenvalues --    1.90463   1.90736   1.93238   1.94070   1.94269
 Alpha virt. eigenvalues --    1.94533   1.95891   1.96068   1.97853   1.99989
 Alpha virt. eigenvalues --    2.01044   2.02407   2.02723   2.05594   2.09110
 Alpha virt. eigenvalues --    2.10364   2.11775   2.15642   2.17260   2.20038
 Alpha virt. eigenvalues --    2.22848   2.23475   2.24247   2.27677   2.29097
 Alpha virt. eigenvalues --    2.29388   2.32334   2.32425   2.39189   2.43728
 Alpha virt. eigenvalues --    2.45377   2.45591   2.48673   2.51065   2.52599
 Alpha virt. eigenvalues --    2.52889   2.56638   2.56787   2.58776   2.58848
 Alpha virt. eigenvalues --    2.64269   2.65097   2.66509   2.70389   2.70602
 Alpha virt. eigenvalues --    2.72882   2.76228   2.76835   2.78620   2.79386
 Alpha virt. eigenvalues --    2.81219   2.83374   2.84209   2.85680   2.89223
 Alpha virt. eigenvalues --    2.90942   2.94071   2.97149   3.01201   3.06806
 Alpha virt. eigenvalues --    3.07389   3.11902   3.14523   3.17918   3.21649
 Alpha virt. eigenvalues --    3.25518   3.26909   3.28698   3.39822   3.46334
 Alpha virt. eigenvalues --    3.53309   3.57270   3.63346   3.67851   3.73886
 Alpha virt. eigenvalues --    3.85572   4.24439   4.31083   4.38531   4.41214
 Alpha virt. eigenvalues --    4.44428   4.45913   4.52187   4.58465   4.61219
 Alpha virt. eigenvalues --    4.63874   4.81122   4.84777   4.93471   5.12002
          Condensed to atoms (all electrons):
               1          2          3          4          5          6
     1  C   10.776549   0.524333  -2.907196   0.404865  -0.641347   0.151194
     2  C    0.524333  13.416464  -5.371109  -0.250898  -0.546819  -0.362729
     3  C   -2.907196  -5.371109  15.656488   0.206258  -1.115475  -0.240786
     4  C    0.404865  -0.250898   0.206258   9.734552  -2.341393  -1.058769
     5  C   -0.641347  -0.546819  -1.115475  -2.341393   8.739741   1.348954
     6  C    0.151194  -0.362729  -0.240786  -1.058769   1.348954   8.245684
     7  C    1.029797   1.102533  -2.546826  -0.146527  -0.091127   0.035511
     8  C   -3.200728  -2.420042   3.276320  -0.520229   0.170551  -1.344743
     9  H    0.025419   0.044551   0.220639   0.024553   0.021909  -0.017911
    10  H    0.045222   0.036394  -0.020345   0.022146  -0.039393   0.286432
    11  H    0.086513  -0.049914  -0.000961   0.001523   0.001802   0.000146
    12  O   -0.039521  -0.022768  -0.409403   0.142830   0.167177   0.050861
    13  H    0.002525   0.001371   0.145442   0.091589  -0.205601  -0.046061
    14  O    0.032820  -0.009666   0.052961  -0.443522   0.194411   0.071549
    15  H    0.022578   0.011387  -0.014375   0.086623  -0.033025  -0.072957
    16  N   -0.219609   0.244604   0.158501  -0.038032   0.051371  -0.048319
    17  H   -0.108613   0.137259   0.039515  -0.004091  -0.004518  -0.072958
    18  C    0.562643  -1.463691  -0.665758  -0.077059   0.046044  -0.087960
    19  O    0.034281  -0.007216   0.003152   0.000112   0.000386  -0.009490
    20  O    0.029135   0.062007  -0.011138   0.000478   0.000537  -0.000556
               7          8          9         10         11         12
     1  C    1.029797  -3.200728   0.025419   0.045222   0.086513  -0.039521
     2  C    1.102533  -2.420042   0.044551   0.036394  -0.049914  -0.022768
     3  C   -2.546826   3.276320   0.220639  -0.020345  -0.000961  -0.409403
     4  C   -0.146527  -0.520229   0.024553   0.022146   0.001523   0.142830
     5  C   -0.091127   0.170551   0.021909  -0.039393   0.001802   0.167177
     6  C    0.035511  -1.344743  -0.017911   0.286432   0.000146   0.050861
     7  C   12.162315  -1.295612   0.000336  -0.005691  -0.043692   0.001531
     8  C   -1.295612  10.894621  -0.003571   0.006985   0.341947   0.001555
     9  H    0.000336  -0.003571   0.533170   0.000013   0.001140  -0.003459
    10  H   -0.005691   0.006985   0.000013   0.525664   0.000001  -0.000643
    11  H   -0.043692   0.341947   0.001140   0.000001   0.524723  -0.000008
    12  O    0.001531   0.001555  -0.003459  -0.000643  -0.000008   8.505482
    13  H    0.001310   0.002288  -0.000041  -0.000014   0.000000   0.216176
    14  O    0.003716   0.002410  -0.000497  -0.009973   0.000002  -0.011264
    15  H    0.001185  -0.000112   0.000004   0.004500   0.000000   0.001408
    16  N    0.118008  -0.252997  -0.000771  -0.013160   0.008758   0.000980
    17  H   -0.040011   0.093949   0.000002   0.001389  -0.000080   0.000002
    18  C   -3.249312  -0.294283  -0.000362   0.001147  -0.023738   0.000922
    19  O   -0.401383   0.031099   0.000001   0.000010  -0.000853   0.000001
    20  O   -0.184897  -0.042871   0.000002  -0.000001  -0.001818   0.000001
              13         14         15         16         17         18
     1  C    0.002525   0.032820   0.022578  -0.219609  -0.108613   0.562643
     2  C    0.001371  -0.009666   0.011387   0.244604   0.137259  -1.463691
     3  C    0.145442   0.052961  -0.014375   0.158501   0.039515  -0.665758
     4  C    0.091589  -0.443522   0.086623  -0.038032  -0.004091  -0.077059
     5  C   -0.205601   0.194411  -0.033025   0.051371  -0.004518   0.046044
     6  C   -0.046061   0.071549  -0.072957  -0.048319  -0.072958  -0.087960
     7  C    0.001310   0.003716   0.001185   0.118008  -0.040011  -3.249312
     8  C    0.002288   0.002410  -0.000112  -0.252997   0.093949  -0.294283
     9  H   -0.000041  -0.000497   0.000004  -0.000771   0.000002  -0.000362
    10  H   -0.000014  -0.009973   0.004500  -0.013160   0.001389   0.001147
    11  H    0.000000   0.000002   0.000000   0.008758  -0.000080  -0.023738
    12  O    0.216176  -0.011264   0.001408   0.000980   0.000002   0.000922
    13  H    0.357737   0.027245  -0.000388  -0.000027   0.000000   0.000068
    14  O    0.027245   8.501571   0.238990  -0.001558  -0.000010   0.000498
    15  H   -0.000388   0.238990   0.339373  -0.000077   0.000001   0.000042
    16  N   -0.000027  -0.001558  -0.000077   7.205696   0.329506  -0.167786
    17  H    0.000000  -0.000010   0.000001   0.329506   0.376382  -0.085926
    18  C    0.000068   0.000498   0.000042  -0.167786  -0.085926   9.674883
    19  O   -0.000000   0.000001  -0.000000   0.006306   0.009415   0.510574
    20  O    0.000000   0.000000   0.000000   0.013775   0.000302   0.338508
              19         20
     1  C    0.034281   0.029135
     2  C   -0.007216   0.062007
     3  C    0.003152  -0.011138
     4  C    0.000112   0.000478
     5  C    0.000386   0.000537
     6  C   -0.009490  -0.000556
     7  C   -0.401383  -0.184897
     8  C    0.031099  -0.042871
     9  H    0.000001   0.000002
    10  H    0.000010  -0.000001
    11  H   -0.000853  -0.001818
    12  O    0.000001   0.000001
    13  H   -0.000000   0.000000
    14  O    0.000001   0.000000
    15  H   -0.000000   0.000000
    16  N    0.006306   0.013775
    17  H    0.009415   0.000302
    18  C    0.510574   0.338508
    19  O    8.725968  -0.207562
    20  O   -0.207562   8.834733
 Mulliken charges:
               1
     1  C   -0.610860
     2  C    0.923950
     3  C   -0.455903
     4  C    0.164992
     5  C    0.275816
     6  C   -0.827091
     7  C   -0.451165
     8  C    0.553462
     9  H    0.154873
    10  H    0.159317
    11  H    0.154508
    12  O   -0.601860
    13  H    0.406380
    14  O   -0.649687
    15  H    0.414843
    16  N   -0.395171
    17  H    0.328487
    18  C    0.980547
    19  O   -0.694803
    20  O   -0.830633
 Sum of Mulliken charges =  -1.00000
 Mulliken charges with hydrogens summed into heavy atoms:
               1
     1  C   -0.610860
     2  C    0.923950
     3  C   -0.301030
     4  C    0.164992
     5  C    0.275816
     6  C   -0.667774
     7  C   -0.451165
     8  C    0.707969
    12  O   -0.195481
    14  O   -0.234844
    16  N   -0.066684
    18  C    0.980547
    19  O   -0.694803
    20  O   -0.830633
 Electronic spatial extent (au):  <R**2>=           3350.4009
 Charge=             -1.0000 electrons
 Dipole moment (field-independent basis, Debye):
    X=            -19.9369    Y=              6.1341    Z=              0.0005  Tot=             20.8592
 Quadrupole moment (field-independent basis, Debye-Ang):
   XX=           -174.2178   YY=            -79.4347   ZZ=            -86.2359
   XY=             -6.4006   XZ=              0.0031   YZ=             -0.0002
 Traceless Quadrupole moment (field-independent basis, Debye-Ang):
   XX=            -60.9217   YY=             33.8614   ZZ=             27.0602
   XY=             -6.4006   XZ=              0.0031   YZ=             -0.0002
 Octapole moment (field-independent basis, Debye-Ang**2):
  XXX=           -445.4353  YYY=             42.1280  ZZZ=             -0.0007  XYY=            -53.2935
  XXY=             64.3311  XXZ=              0.0089  XZZ=             -4.5319  YZZ=              4.4234
  YYZ=             -0.0001  XYZ=              0.0008
 Hexadecapole moment (field-independent basis, Debye-Ang**3):
 XXXX=          -5311.2222 YYYY=           -589.7775 ZZZZ=            -98.2997 XXXY=            -45.5329
 XXXZ=              0.0501 YYYX=            -85.8873 YYYZ=             -0.0012 ZZZX=             -0.0023
 ZZZY=              0.0006 XXYY=           -841.8682 XXZZ=           -635.8939 YYZZ=           -142.3239
 XXYZ=             -0.0038 YYXZ=              0.0027 ZZXY=              3.9139
 N-N= 8.263193680383D+02 E-N=-3.307355099120D+03  KE= 6.959985703387D+02
 D1PCM: PCM CHGder 1st derivatives, ID1Alg=3 FixD1E=F DoIter=F DoCFld=F I1PDM=0.
 Calling FoFJK, ICntrl=      2127 FMM=F ISym2X=0 I1Cent= 0 IOpClX= 0 NMat=1 NMatS=1 NMatT=0.
 ***** Axes restored to original set *****
 -------------------------------------------------------------------
 Center     Atomic                   Forces (Hartrees/Bohr)
 Number     Number              X              Y              Z
 -------------------------------------------------------------------
      1        6          -0.004463069   -0.001783210   -0.000000045
      2        6          -0.003132421    0.000012967    0.000000787
      3        6           0.001856744   -0.000543884    0.000000363
      4        6           0.001950575   -0.005015536   -0.000000165
      5        6           0.000113837    0.003134000    0.000000252
      6        6           0.001060729    0.000926088    0.000000457
      7        6          -0.013759495   -0.007620210   -0.000011393
      8        6           0.002328572   -0.002518846   -0.000001677
      9        1           0.000192541    0.000484205   -0.000000027
     10        1          -0.000139466   -0.000110240    0.000000054
     11        1           0.000182167   -0.000907452   -0.000000212
     12        8          -0.003309825    0.001946859    0.000000016
     13        1          -0.000154182   -0.000361910   -0.000000027
     14        8          -0.003207809   -0.001075302   -0.000000007
     15        1           0.000044332   -0.000478542   -0.000000137
     16        7          -0.003047443    0.003450286   -0.000001785
     17        1           0.000467680    0.000358652    0.000000163
     18        6           0.050063613    0.101615062    0.000051695
     19        8           0.003192782   -0.045287247   -0.000013971
     20        8          -0.030239863   -0.046225741   -0.000024340
 -------------------------------------------------------------------
 Cartesian Forces:  Max     0.101615062 RMS     0.017478679

 GradGradGradGradGradGradGradGradGradGradGradGradGradGradGradGradGradGrad
 Berny optimization.
 FormGI is forming the generalized inverse of G from B-inverse, IUseBI=4.
 Internal  Forces:  Max     0.055193664 RMS     0.007957292
 Search for a local minimum.
 Step number   1 out of a maximum of  111
 All quantities printed in internal units (Hartrees-Bohrs-Radians)
 Mixed Optimization -- RFO/linear search
 Second derivative matrix not updated -- first step.
 ITU=  0
     Eigenvalues ---    0.01362   0.01362   0.01855   0.01883   0.01959
     Eigenvalues ---    0.01981   0.02032   0.02057   0.02064   0.02095
     Eigenvalues ---    0.02105   0.02136   0.02138   0.02193   0.02209
     Eigenvalues ---    0.02241   0.02294   0.16000   0.16000   0.16000
     Eigenvalues ---    0.16000   0.16000   0.16000   0.23055   0.23502
     Eigenvalues ---    0.23846   0.24321   0.25000   0.25000   0.25000
     Eigenvalues ---    0.25000   0.25000   0.25000   0.35354   0.35462
     Eigenvalues ---    0.35999   0.37464   0.37602   0.39248   0.41590
     Eigenvalues ---    0.41920   0.44268   0.46149   0.47086   0.47310
     Eigenvalues ---    0.48534   0.49730   0.50696   0.51216   0.51664
     Eigenvalues ---    0.53729   0.54351   0.56539   0.95573
 RFO step:  Lambda=-1.24463803D-02 EMin= 1.36174040D-02
 Linear search not attempted -- first point.
 Iteration  1 RMS(Cart)=  0.02265926 RMS(Int)=  0.00099088
 Iteration  2 RMS(Cart)=  0.00102172 RMS(Int)=  0.00000374
 Iteration  3 RMS(Cart)=  0.00000188 RMS(Int)=  0.00000350
 Iteration  4 RMS(Cart)=  0.00000000 RMS(Int)=  0.00000350
 Variable       Old X    -DE/DX   Delta X   Delta X   Delta X     New X
                                 (Linear)    (Quad)   (Total)
    R1        2.67394  -0.00154   0.00000  -0.00367  -0.00368   2.67025
    R2        2.65145   0.00066   0.00000   0.00129   0.00129   2.65274
    R3        2.58371   0.00271   0.00000   0.00514   0.00514   2.58885
    R4        2.66567  -0.00013   0.00000  -0.00033  -0.00033   2.66534
    R5        2.69318   0.00512   0.00000   0.01189   0.01189   2.70507
    R6        2.59286   0.00294   0.00000   0.00579   0.00579   2.59865
    R7        2.04931   0.00048   0.00000   0.00130   0.00130   2.05061
    R8        2.68688  -0.00213   0.00000  -0.00472  -0.00472   2.68216
    R9        2.58223   0.00381   0.00000   0.00720   0.00720   2.58943
   R10        2.60024   0.00139   0.00000   0.00278   0.00278   2.60302
   R11        2.58658   0.00352   0.00000   0.00672   0.00672   2.59330
   R12        2.05105   0.00011   0.00000   0.00029   0.00029   2.05133
   R13        2.59814  -0.00105   0.00000  -0.00205  -0.00204   2.59611
   R14        2.60738   0.00309   0.00000   0.00616   0.00617   2.61355
   R15        2.74948   0.02158   0.00000   0.05556   0.05556   2.80503
   R16        2.04083  -0.00079   0.00000  -0.00213  -0.00213   2.03870
   R17        1.82979   0.00035   0.00000   0.00064   0.00064   1.83043
   R18        1.82413   0.00047   0.00000   0.00084   0.00084   1.82497
   R19        1.90663  -0.00017   0.00000  -0.00037  -0.00037   1.90627
   R20        2.30466   0.04189   0.00000   0.04327   0.04327   2.34793
   R21        2.53789  -0.05519   0.00000  -0.09552  -0.09552   2.44237
    A1        2.13069   0.00075   0.00000   0.00245   0.00245   2.13314
    A2        1.88307  -0.00249   0.00000  -0.00990  -0.00991   1.87316
    A3        2.26943   0.00174   0.00000   0.00745   0.00746   2.27689
    A4        2.08523  -0.00126   0.00000  -0.00501  -0.00501   2.08022
    A5        1.86587   0.00001   0.00000  -0.00051  -0.00052   1.86536
    A6        2.33208   0.00124   0.00000   0.00552   0.00553   2.33761
    A7        2.07160   0.00078   0.00000   0.00325   0.00325   2.07485
    A8        2.12382  -0.00062   0.00000  -0.00296  -0.00296   2.12086
    A9        2.08776  -0.00016   0.00000  -0.00029  -0.00029   2.08747
   A10        2.10833   0.00028   0.00000   0.00135   0.00135   2.10968
   A11        2.09902   0.00020   0.00000   0.00061   0.00061   2.09963
   A12        2.07584  -0.00048   0.00000  -0.00195  -0.00195   2.07388
   A13        2.13012  -0.00144   0.00000  -0.00538  -0.00538   2.12474
   A14        1.98575   0.00076   0.00000   0.00282   0.00282   1.98857
   A15        2.16732   0.00069   0.00000   0.00256   0.00256   2.16988
   A16        2.04041   0.00089   0.00000   0.00334   0.00334   2.04375
   A17        2.12765  -0.00029   0.00000  -0.00078  -0.00078   2.12687
   A18        2.11513  -0.00060   0.00000  -0.00256  -0.00256   2.11257
   A19        1.91214  -0.00464   0.00000  -0.01842  -0.01841   1.89373
   A20        2.29344   0.00170   0.00000   0.00686   0.00685   2.30029
   A21        2.07761   0.00294   0.00000   0.01157   0.01156   2.08916
   A22        1.86394   0.00276   0.00000   0.01093   0.01093   1.87487
   A23        2.22608  -0.00088   0.00000  -0.00254  -0.00255   2.22354
   A24        2.19316  -0.00188   0.00000  -0.00838  -0.00838   2.18478
   A25        1.89997  -0.00027   0.00000  -0.00155  -0.00155   1.89843
   A26        1.94721  -0.00001   0.00000  -0.00006  -0.00006   1.94715
   A27        1.89976   0.00436   0.00000   0.01790   0.01791   1.91767
   A28        2.22229  -0.00165   0.00000  -0.00589  -0.00590   2.21639
   A29        2.16114  -0.00271   0.00000  -0.01201  -0.01201   2.14913
   A30        2.16240  -0.02483   0.00000  -0.09461  -0.09461   2.06778
   A31        1.97982   0.00926   0.00000   0.03528   0.03528   2.01509
   A32        2.14097   0.01557   0.00000   0.05934   0.05934   2.20031
    D1        0.00000  -0.00000   0.00000  -0.00000  -0.00000   0.00000
    D2       -3.14159  -0.00000   0.00000  -0.00000  -0.00000  -3.14159
    D3        3.14159   0.00000   0.00000   0.00000   0.00000  -3.14159
    D4       -0.00000   0.00000   0.00000   0.00000   0.00000   0.00000
    D5       -0.00000   0.00000   0.00000   0.00000   0.00000   0.00000
    D6        3.14159   0.00000   0.00000   0.00000   0.00000   3.14159
    D7       -3.14159   0.00000   0.00000   0.00000   0.00000  -3.14159
    D8        0.00000  -0.00000   0.00000  -0.00000  -0.00000  -0.00000
    D9       -0.00000   0.00000   0.00000   0.00001   0.00001   0.00001
   D10       -3.14159  -0.00000   0.00000  -0.00001  -0.00001   3.14159
   D11        3.14158   0.00000   0.00000   0.00002   0.00002  -3.14158
   D12        0.00000  -0.00000   0.00000  -0.00000  -0.00000  -0.00000
   D13       -0.00000  -0.00000   0.00000  -0.00000  -0.00000  -0.00000
   D14        3.14159   0.00000   0.00000   0.00000   0.00000   3.14159
   D15       -3.14159  -0.00000   0.00000  -0.00000  -0.00000   3.14159
   D16       -0.00000  -0.00000   0.00000  -0.00000  -0.00000  -0.00000
   D17        0.00001  -0.00000   0.00000  -0.00002  -0.00002  -0.00001
   D18       -3.14159  -0.00000   0.00000  -0.00000  -0.00000  -3.14159
   D19       -3.14159  -0.00000   0.00000  -0.00002  -0.00002   3.14158
   D20        0.00000   0.00000   0.00000   0.00000   0.00000   0.00000
   D21       -0.00000   0.00000   0.00000   0.00000   0.00000   0.00000
   D22        3.14159   0.00000   0.00000   0.00000   0.00000  -3.14159
   D23       -3.14159  -0.00000   0.00000  -0.00000  -0.00000   3.14159
   D24        0.00000   0.00000   0.00000   0.00000   0.00000   0.00000
   D25        0.00000  -0.00000   0.00000  -0.00000  -0.00000   0.00000
   D26       -3.14159   0.00000   0.00000   0.00000   0.00000  -3.14159
   D27       -3.14159  -0.00000   0.00000  -0.00000  -0.00000  -3.14159
   D28        0.00000   0.00000   0.00000   0.00000   0.00000   0.00000
   D29       -3.14158  -0.00000   0.00000  -0.00000  -0.00000  -3.14158
   D30        0.00001  -0.00000   0.00000  -0.00000  -0.00000   0.00001
   D31       -0.00000  -0.00000   0.00000  -0.00000  -0.00000  -0.00000
   D32       -3.14159  -0.00000   0.00000  -0.00000  -0.00000  -3.14159
   D33        3.14159  -0.00000   0.00000  -0.00001  -0.00001   3.14159
   D34        0.00000  -0.00000   0.00000  -0.00000  -0.00000  -0.00000
   D35       -3.14156  -0.00000   0.00000  -0.00001  -0.00001  -3.14156
   D36        0.00004  -0.00000   0.00000  -0.00000  -0.00000   0.00003
   D37       -0.00001   0.00000   0.00000   0.00003   0.00003   0.00002
   D38        3.14159   0.00000   0.00000   0.00001   0.00001  -3.14159
   D39        3.14159   0.00000   0.00000   0.00002   0.00002  -3.14158
   D40        0.00000   0.00000   0.00000   0.00000   0.00000   0.00000
   D41        0.00001  -0.00000   0.00000  -0.00002  -0.00002  -0.00002
   D42        3.14159  -0.00000   0.00000  -0.00001  -0.00001   3.14159
   D43       -3.14159  -0.00000   0.00000  -0.00002  -0.00002   3.14158
   D44       -0.00001   0.00000   0.00000   0.00000   0.00000  -0.00000
   D45        3.14143   0.00002   0.00000   0.00070   0.00070  -3.14106
   D46        0.00016  -0.00002   0.00000  -0.00068  -0.00068  -0.00052
   D47       -0.00016   0.00002   0.00000   0.00069   0.00069   0.00053
   D48       -3.14143  -0.00002   0.00000  -0.00069  -0.00069   3.14107
         Item               Value     Threshold  Converged?
 Maximum Force            0.055194     0.000450     NO 
 RMS     Force            0.007957     0.000300     NO 
 Maximum Displacement     0.098285     0.001800     NO 
 RMS     Displacement     0.022549     0.001200     NO 
 Predicted change in Energy=-6.408116D-03
 GradGradGradGradGradGradGradGradGradGradGradGradGradGradGradGradGradGrad

                          Input orientation:                          
 ---------------------------------------------------------------------
 Center     Atomic      Atomic             Coordinates (Angstroms)
 Number     Number       Type             X           Y           Z
 ---------------------------------------------------------------------
      1          6           0       -0.155943   -0.627539    0.000059
      2          6           0       -0.170693    0.785421    0.000050
      3          6           0       -1.409155    1.460361    0.000009
      4          6           0       -2.568553    0.720887   -0.000022
      5          6           0       -2.527571   -0.697860   -0.000013
      6          6           0       -1.335670   -1.388341    0.000030
      7          6           0        1.980660    0.088512    0.000129
      8          6           0        1.194704    1.215277    0.000085
      9          1           0       -1.464559    2.544081    0.000001
     10          1           0       -1.317532   -2.473709    0.000036
     11          1           0        1.562345    2.229539    0.000089
     12          8           0       -3.787618    1.346597   -0.000065
     13          1           0       -4.483703    0.673028   -0.000074
     14          8           0       -3.765262   -1.290622   -0.000053
     15          1           0       -3.697435   -2.253972   -0.000018
     16          7           0        1.156059   -1.021806    0.000101
     17          1           0        1.505436   -1.968124    0.000118
     18          6           0        3.454269   -0.089814    0.000192
     19          8           0        3.911155   -1.245231   -0.000358
     20          8           0        4.145967    1.001964   -0.000396
 ---------------------------------------------------------------------
                    Distance matrix (angstroms):
                    1          2          3          4          5
     1  C    0.000000
     2  C    1.413037   0.000000
     3  C    2.435132   1.410436   0.000000
     4  C    2.763863   2.398728   1.375146   0.000000
     5  C    2.372671   2.784780   2.430798   1.419339   0.000000
     6  C    1.403772   2.466255   2.849650   2.443122   1.377459
     7  C    2.253398   2.261416   3.656886   4.592955   4.576301
     8  C    2.284780   1.431463   2.615368   3.795593   4.185144
     9  H    3.430984   2.183340   1.085135   2.131394   3.411771
    10  H    2.181200   3.455021   3.935137   3.430816   2.148915
    11  H    3.333978   2.255859   3.069437   4.397766   5.029620
    12  O    4.133554   3.660199   2.381182   1.370267   2.401566
    13  H    4.518958   4.314474   3.173758   1.915748   2.388678
    14  O    3.669722   4.151009   3.622037   2.340573   1.372314
    15  H    3.897107   4.655729   4.362625   3.181849   1.946809
    16  N    1.369962   2.241950   3.569520   4.112142   3.697847
    17  H    2.134795   3.223573   4.499928   4.881411   4.228324
    18  C    3.650039   3.729127   5.104502   6.077140   6.012665
    19  O    4.113737   4.559061   5.968746   6.771428   6.461951
    20  O    4.600186   4.322088   5.574002   6.720401   6.886619
                    6          7          8          9         10
     6  C    0.000000
     7  C    3.630309   0.000000
     8  C    3.630650   1.373800   0.000000
     9  H    3.934534   4.230763   2.972777   0.000000
    10  H    1.085519   4.176488   4.463177   5.019944   0.000000
    11  H    4.635466   2.181510   1.078836   3.043203   5.514910
    12  O    3.673137   5.903880   4.984052   2.613536   4.549292
    13  H    3.762892   6.490736   5.704239   3.551911   4.463921
    14  O    2.431556   5.909114   5.557049   4.471933   2.718653
    15  H    2.515402   6.142312   5.997392   5.292169   2.390025
    16  N    2.518543   1.383030   2.237416   4.425289   2.868218
    17  H    2.899661   2.110827   3.198531   5.401932   2.867886
    18  C    4.962831   1.484360   2.609386   5.579630   5.334140
    19  O    5.248776   2.346419   3.665134   6.577020   5.371064
    20  O    5.980126   2.350095   2.958962   5.818602   6.475348
                   11         12         13         14         15
    11  H    0.000000
    12  O    5.422332   0.000000
    13  H    6.243190   0.968622   0.000000
    14  O    6.385525   2.637314   2.090952   0.000000
    15  H    6.911378   3.601698   3.030767   0.965735   0.000000
    16  N    3.276631   5.481721   5.888920   4.928657   5.007458
    17  H    4.198049   6.245302   6.545646   5.314063   5.210717
    18  C    2.993121   7.382967   7.974543   7.318714   7.471978
    19  O    4.194155   8.123341   8.611234   7.676551   7.675167
    20  O    2.860427   7.941066   8.635936   8.236716   8.492354
                   16         17         18         19         20
    16  N    0.000000
    17  H    1.008754   0.000000
    18  C    2.479996   2.706659   0.000000
    19  O    2.764141   2.511983   1.242471   0.000000
    20  O    3.610428   3.974145   1.292449   2.259430   0.000000
 Stoichiometry    C9H6NO4(1-)
 Framework group  C1[X(C9H6NO4)]
 Deg. of freedom    54
 Full point group                 C1      NOp   1
 Largest Abelian subgroup         C1      NOp   1
 Largest concise Abelian subgroup C1      NOp   1
                         Standard orientation:                         
 ---------------------------------------------------------------------
 Center     Atomic      Atomic             Coordinates (Angstroms)
 Number     Number       Type             X           Y           Z
 ---------------------------------------------------------------------
      1          6           0       -0.100792    0.617223   -0.000090
      2          6           0       -0.126259   -0.795584   -0.000080
      3          6           0       -1.369804   -1.461112   -0.000039
      4          6           0       -2.523560   -0.712865   -0.000008
      5          6           0       -2.471818    0.705531   -0.000018
      6          6           0       -1.274714    1.386952   -0.000060
      7          6           0        2.030319   -0.115013   -0.000159
      8          6           0        1.235839   -1.235784   -0.000115
      9          1           0       -1.433426   -2.544380   -0.000031
     10          1           0       -1.248344    2.472150   -0.000066
     11          1           0        1.595776   -2.252806   -0.000120
     12          8           0       -3.747335   -1.329310    0.000035
     13          1           0       -4.438292   -0.650481    0.000043
     14          8           0       -3.704977    1.307664    0.000023
     15          1           0       -3.629845    2.270471   -0.000012
     16          7           0        1.214163    1.001527   -0.000131
     17          1           0        1.570708    1.945168   -0.000149
     18          6           0        3.505238    0.052130   -0.000223
     19          8           0        3.970875    1.204049    0.000328
     20          8           0        4.188635   -1.044863    0.000366
 ---------------------------------------------------------------------
 Rotational constants (GHZ):           2.2071683           0.3493809           0.3016341
 Standard basis: 6-31+G(d,p) (6D, 7F)
 There are   296 symmetry adapted cartesian basis functions of A   symmetry.
 There are   296 symmetry adapted basis functions of A   symmetry.
   296 basis functions,   490 primitive gaussians,   296 cartesian basis functions
    50 alpha electrons       50 beta electrons
       nuclear repulsion energy       825.0328872573 Hartrees.
 NAtoms=   20 NActive=   20 NUniq=   20 SFac= 1.00D+00 NAtFMM=   60 NAOKFM=F Big=F
 Integral buffers will be    131072 words long.
 Raffenetti 2 integral format.
 Two-electron integral symmetry is turned on.
 Force PCM accuracy= 1.00D-12.
 ------------------------------------------------------------------------------
 Polarizable Continuum Model (PCM)
 =================================
 Model                : PCM.
 Atomic radii         : UFF (Universal Force Field).
 Polarization charges : Total charges.
 Charge compensation  : None.
 Solution method      : On-the-fly selection.
 Cavity type          : Scaled VdW (van der Waals Surface) (Alpha=1.100).
 Cavity algorithm     : GePol (No added spheres)
                        Default sphere list used, NSphG=   20.
                        Lebedev-Laikov grids with approx.  5.0 points / Ang**2.
                        Smoothing algorithm: York/Karplus (Gamma=1.0000).
                        Polarization charges: spherical gaussians, with
                                              point-specific exponents (IZeta= 3).
                        Self-potential: point-specific (ISelfS= 7).
                        Self-field    : sphere-specific E.n sum rule (ISelfD= 2).
 1st derivatives      : Analytical E(r).r(x)/FMM algorithm (CHGder, D1EAlg=3).
                        Cavity 1st derivative terms included.
 Solvent              : Water, Eps=  78.355300 Eps(inf)=   1.777849
 ------------------------------------------------------------------------------
 Spheres list:
 ISph  on   Nord     Re0    Alpha      Xe            Ye            Ze
    1   C      1    1.9255  1.100     -0.100792      0.617223     -0.000090
    2   C      2    1.9255  1.100     -0.126259     -0.795584     -0.000080
    3   C      3    1.9255  1.100     -1.369804     -1.461112     -0.000039
    4   C      4    1.9255  1.100     -2.523560     -0.712865     -0.000008
    5   C      5    1.9255  1.100     -2.471818      0.705531     -0.000018
    6   C      6    1.9255  1.100     -1.274714      1.386952     -0.000060
    7   C      7    1.9255  1.100      2.030319     -0.115013     -0.000159
    8   C      8    1.9255  1.100      1.235839     -1.235784     -0.000115
    9   H      9    1.4430  1.100     -1.433426     -2.544380     -0.000031
   10   H     10    1.4430  1.100     -1.248344      2.472150     -0.000066
   11   H     11    1.4430  1.100      1.595776     -2.252806     -0.000120
   12   O     12    1.7500  1.100     -3.747335     -1.329310      0.000035
   13   H     13    1.4430  1.100     -4.438292     -0.650481      0.000043
   14   O     14    1.7500  1.100     -3.704977      1.307664      0.000023
   15   H     15    1.4430  1.100     -3.629845      2.270471     -0.000012
   16   N     16    1.8300  1.100      1.214163      1.001527     -0.000131
   17   H     17    1.4430  1.100      1.570708      1.945168     -0.000149
   18   C     18    1.9255  1.100      3.505238      0.052130     -0.000223
   19   O     19    1.7500  1.100      3.970875      1.204049      0.000328
   20   O     20    1.7500  1.100      4.188635     -1.044863      0.000366
 ------------------------------------------------------------------------------
 One-electron integrals computed using PRISM.
 NBasis=   296 RedAO= T EigKep=  1.46D-06  NBF=   296
 NBsUse=   295 1.00D-06 EigRej=  8.27D-07 NBFU=   295
 Initial guess from the checkpoint file:  "K2A.chk"
 B after Tr=     0.000000    0.000000    0.000000
         Rot=    1.000000    0.000002    0.000008   -0.000648 Ang=   0.07 deg.
 ExpMin= 4.38D-02 ExpMax= 5.48D+03 ExpMxC= 8.25D+02 IAcc=3 IRadAn=         7 AccDes= 0.00D+00
 Harris functional with IExCor=20419 and IRadAn=       7 diagonalized for initial guess.
 HarFok:  IExCor=20419 AccDes= 0.00D+00 IRadAn=         7 IDoV= 1 UseB2=F ITyADJ=14
 ICtDFT=  3500011 ScaDFX=  1.000000  1.000000  1.000000  1.000000
 FoFCou: FMM=F IPFlag=           0 FMFlag=      100000 FMFlg1=           0
         NFxFlg=           0 DoJE=T BraDBF=F KetDBF=T FulRan=T
         wScrn=  0.000000 ICntrl=       500 IOpCl=  0 I1Cent=   200000004 NGrid=           0
         NMat0=    1 NMatS0=      1 NMatT0=    0 NMatD0=    1 NMtDS0=    0 NMtDT0=    0
 Petite list used in FoFCou.
 Requested convergence on RMS density matrix=1.00D-08 within 128 cycles.
 Requested convergence on MAX density matrix=1.00D-06.
 Requested convergence on             energy=1.00D-06.
 No special actions if energy rises.
 Inv3:  Mode=1 IEnd=    10013787.
 Iteration    1 A*A^-1 deviation from unit magnitude is 6.22D-15 for    443.
 Iteration    1 A*A^-1 deviation from orthogonality  is 2.65D-15 for   1813   1259.
 Iteration    1 A^-1*A deviation from unit magnitude is 6.44D-15 for    443.
 Iteration    1 A^-1*A deviation from orthogonality  is 2.73D-15 for   1517    921.
 Error on total polarization charges =  0.02342
 SCF Done:  E(RCAM-B3LYP) =  -702.135198929     A.U. after   14 cycles
            NFock= 14  Conv=0.37D-08     -V/T= 2.0089
 D1PCM: PCM CHGder 1st derivatives, ID1Alg=3 FixD1E=F DoIter=F DoCFld=F I1PDM=0.
 Calling FoFJK, ICntrl=      2127 FMM=F ISym2X=0 I1Cent= 0 IOpClX= 0 NMat=1 NMatS=1 NMatT=0.
 ***** Axes restored to original set *****
 -------------------------------------------------------------------
 Center     Atomic                   Forces (Hartrees/Bohr)
 Number     Number              X              Y              Z
 -------------------------------------------------------------------
      1        6           0.000290840   -0.000185030    0.000000176
      2        6          -0.001638709    0.001694223   -0.000002218
      3        6           0.000813859   -0.000023186   -0.000000861
      4        6           0.000988964   -0.002511438    0.000000042
      5        6           0.000205357    0.001868374   -0.000000337
      6        6           0.001261067    0.000078953   -0.000001513
      7        6          -0.011151208   -0.004737284    0.000042031
      8        6           0.001260895   -0.000287363    0.000003565
      9        1          -0.000162384    0.000076451   -0.000000044
     10        1          -0.000004745   -0.000065047    0.000000015
     11        1          -0.000001487    0.000776339    0.000000898
     12        8          -0.001106921    0.001242128    0.000000155
     13        1           0.000210776   -0.000171054    0.000000021
     14        8          -0.000682175   -0.000364078    0.000000535
     15        1           0.000235037   -0.000007253   -0.000000049
     16        7           0.000778432   -0.000912507    0.000005186
     17        1           0.000902418    0.000108902   -0.000000990
     18        6           0.019998707    0.045863539   -0.000171218
     19        8           0.002301441   -0.017875680    0.000053520
     20        8          -0.014500165   -0.024568989    0.000071086
 -------------------------------------------------------------------
 Cartesian Forces:  Max     0.045863539 RMS     0.007974745

 GradGradGradGradGradGradGradGradGradGradGradGradGradGradGradGradGradGrad
 Berny optimization.
 Using GEDIIS/GDIIS optimizer.
 FormGI is forming the generalized inverse of G from B-inverse, IUseBI=4.
 Internal  Forces:  Max     0.028517431 RMS     0.003567602
 Search for a local minimum.
 Step number   2 out of a maximum of  111
 All quantities printed in internal units (Hartrees-Bohrs-Radians)
 Mixed Optimization -- RFO/linear search
 Update second derivatives using D2CorX and points    1    2
 DE= -8.72D-03 DEPred=-6.41D-03 R= 1.36D+00
 TightC=F SS=  1.41D+00  RLast= 1.72D-01 DXNew= 5.0454D-01 5.1715D-01
 Trust test= 1.36D+00 RLast= 1.72D-01 DXMaxT set to 5.05D-01
 ITU=  1  0
 Use linear search instead of GDIIS.
     Eigenvalues ---    0.01362   0.01362   0.01852   0.01881   0.01960
     Eigenvalues ---    0.01981   0.02032   0.02058   0.02063   0.02096
     Eigenvalues ---    0.02105   0.02136   0.02138   0.02191   0.02209
     Eigenvalues ---    0.02241   0.02294   0.15926   0.16000   0.16000
     Eigenvalues ---    0.16000   0.16000   0.16007   0.20684   0.23060
     Eigenvalues ---    0.23817   0.24151   0.24549   0.25000   0.25000
     Eigenvalues ---    0.25000   0.25000   0.26208   0.34617   0.35354
     Eigenvalues ---    0.35464   0.36047   0.37629   0.39258   0.41633
     Eigenvalues ---    0.41897   0.43906   0.44589   0.46151   0.47175
     Eigenvalues ---    0.47669   0.48559   0.49808   0.50704   0.51271
     Eigenvalues ---    0.51703   0.53730   0.54353   0.91389
 RFO step:  Lambda=-1.07853230D-03 EMin= 1.36174040D-02
 Quartic linear search produced a step of  0.58702.
 Iteration  1 RMS(Cart)=  0.01645283 RMS(Int)=  0.00038445
 Iteration  2 RMS(Cart)=  0.00042402 RMS(Int)=  0.00000778
 Iteration  3 RMS(Cart)=  0.00000030 RMS(Int)=  0.00000777
 Variable       Old X    -DE/DX   Delta X   Delta X   Delta X     New X
                                 (Linear)    (Quad)   (Total)
    R1        2.67025   0.00113  -0.00216   0.00679   0.00461   2.67487
    R2        2.65274  -0.00111   0.00076  -0.00451  -0.00375   2.64899
    R3        2.58885  -0.00009   0.00302  -0.00304  -0.00003   2.58883
    R4        2.66534  -0.00082  -0.00020  -0.00265  -0.00284   2.66249
    R5        2.70507   0.00003   0.00698  -0.00609   0.00089   2.70596
    R6        2.59865   0.00013   0.00340  -0.00277   0.00063   2.59928
    R7        2.05061   0.00009   0.00076  -0.00034   0.00042   2.05103
    R8        2.68216  -0.00104  -0.00277  -0.00154  -0.00431   2.67785
    R9        2.58943   0.00129   0.00423   0.00008   0.00431   2.59374
   R10        2.60302   0.00044   0.00163  -0.00020   0.00144   2.60446
   R11        2.59330   0.00056   0.00394  -0.00186   0.00208   2.59538
   R12        2.05133   0.00006   0.00017   0.00013   0.00030   2.05163
   R13        2.59611  -0.00007  -0.00120   0.00064  -0.00055   2.59556
   R14        2.61355  -0.00180   0.00362  -0.00951  -0.00588   2.60767
   R15        2.80503   0.00733   0.03261   0.00025   0.03286   2.83790
   R16        2.03870   0.00073  -0.00125   0.00438   0.00313   2.04183
   R17        1.83043  -0.00004   0.00037  -0.00044  -0.00007   1.83036
   R18        1.82497   0.00002   0.00049  -0.00039   0.00010   1.82508
   R19        1.90627   0.00021  -0.00021   0.00092   0.00071   1.90698
   R20        2.34793   0.01747   0.02540   0.00653   0.03194   2.37987
   R21        2.44237  -0.02852  -0.05607  -0.02896  -0.08503   2.35734
    A1        2.13314  -0.00025   0.00144  -0.00287  -0.00143   2.13171
    A2        1.87316   0.00081  -0.00582   0.01172   0.00589   1.87905
    A3        2.27689  -0.00056   0.00438  -0.00885  -0.00446   2.27243
    A4        2.08022   0.00021  -0.00294   0.00416   0.00123   2.08144
    A5        1.86536  -0.00079  -0.00030  -0.00341  -0.00372   1.86163
    A6        2.33761   0.00059   0.00325  -0.00076   0.00250   2.34011
    A7        2.07485  -0.00026   0.00191  -0.00342  -0.00151   2.07334
    A8        2.12086   0.00029  -0.00174   0.00412   0.00238   2.12324
    A9        2.08747  -0.00003  -0.00017  -0.00070  -0.00087   2.08661
   A10        2.10968   0.00018   0.00079   0.00020   0.00099   2.11067
   A11        2.09963  -0.00056   0.00036  -0.00380  -0.00344   2.09619
   A12        2.07388   0.00038  -0.00115   0.00360   0.00245   2.07633
   A13        2.12474   0.00018  -0.00316   0.00399   0.00084   2.12558
   A14        1.98857   0.00030   0.00165   0.00038   0.00203   1.99060
   A15        2.16988  -0.00048   0.00150  -0.00437  -0.00287   2.16701
   A16        2.04375  -0.00005   0.00196  -0.00207  -0.00011   2.04363
   A17        2.12687   0.00003  -0.00046   0.00056   0.00010   2.12697
   A18        2.11257   0.00002  -0.00150   0.00151   0.00001   2.11258
   A19        1.89373   0.00172  -0.01081   0.02084   0.01005   1.90378
   A20        2.30029  -0.00061   0.00402  -0.00748  -0.00346   2.29683
   A21        2.08916  -0.00111   0.00678  -0.01337  -0.00659   2.08257
   A22        1.87487  -0.00063   0.00641  -0.01039  -0.00397   1.87090
   A23        2.22354   0.00004  -0.00149   0.00073  -0.00077   2.22277
   A24        2.18478   0.00058  -0.00492   0.00966   0.00473   2.18952
   A25        1.89843  -0.00049  -0.00091  -0.00386  -0.00477   1.89366
   A26        1.94715  -0.00042  -0.00003  -0.00414  -0.00417   1.94298
   A27        1.91767  -0.00112   0.01051  -0.01878  -0.00826   1.90941
   A28        2.21639   0.00140  -0.00346   0.01577   0.01230   2.22870
   A29        2.14913  -0.00028  -0.00705   0.00301  -0.00405   2.14508
   A30        2.06778  -0.00768  -0.05554   0.00614  -0.04944   2.01835
   A31        2.01509   0.00494   0.02071   0.01086   0.03153   2.04662
   A32        2.20031   0.00274   0.03483  -0.01699   0.01781   2.21812
    D1        0.00000   0.00000  -0.00000   0.00001   0.00001   0.00001
    D2       -3.14159  -0.00000  -0.00000  -0.00000  -0.00000   3.14159
    D3       -3.14159  -0.00000   0.00000  -0.00002  -0.00001   3.14158
    D4        0.00000  -0.00000   0.00000  -0.00003  -0.00003  -0.00002
    D5        0.00000  -0.00000   0.00000  -0.00003  -0.00003  -0.00003
    D6        3.14159  -0.00000   0.00000  -0.00000  -0.00000   3.14159
    D7       -3.14159  -0.00000   0.00000  -0.00000  -0.00000   3.14159
    D8       -0.00000   0.00000  -0.00000   0.00003   0.00003   0.00003
    D9        0.00001  -0.00000   0.00001  -0.00009  -0.00009  -0.00008
   D10        3.14159   0.00000  -0.00000   0.00008   0.00007  -3.14152
   D11       -3.14158  -0.00000   0.00001  -0.00012  -0.00011   3.14149
   D12       -0.00000   0.00000  -0.00000   0.00005   0.00005   0.00005
   D13       -0.00000   0.00000  -0.00000   0.00002   0.00002   0.00002
   D14        3.14159  -0.00000   0.00000  -0.00000  -0.00000   3.14159
   D15        3.14159   0.00000  -0.00000   0.00004   0.00003  -3.14156
   D16       -0.00000   0.00000  -0.00000   0.00001   0.00001   0.00001
   D17       -0.00001   0.00000  -0.00001   0.00014   0.00013   0.00012
   D18       -3.14159   0.00000  -0.00000   0.00001   0.00000  -3.14159
   D19        3.14158   0.00000  -0.00001   0.00012   0.00011  -3.14149
   D20        0.00000  -0.00000   0.00000  -0.00001  -0.00001  -0.00001
   D21        0.00000  -0.00000   0.00000  -0.00002  -0.00002  -0.00002
   D22       -3.14159  -0.00000   0.00000  -0.00003  -0.00003   3.14157
   D23        3.14159   0.00000  -0.00000   0.00000   0.00000  -3.14159
   D24        0.00000  -0.00000   0.00000  -0.00001  -0.00001  -0.00000
   D25        0.00000  -0.00000  -0.00000  -0.00000  -0.00001  -0.00000
   D26       -3.14159  -0.00000   0.00000  -0.00002  -0.00002   3.14158
   D27       -3.14159   0.00000  -0.00000   0.00000   0.00000  -3.14159
   D28        0.00000  -0.00000   0.00000  -0.00001  -0.00001  -0.00001
   D29       -3.14158   0.00000  -0.00000   0.00000   0.00000  -3.14158
   D30        0.00001  -0.00000  -0.00000  -0.00000  -0.00000   0.00001
   D31       -0.00000   0.00000  -0.00000   0.00003   0.00003   0.00003
   D32       -3.14159  -0.00000  -0.00000  -0.00000  -0.00000  -3.14159
   D33        3.14159   0.00000  -0.00000   0.00005   0.00005  -3.14155
   D34       -0.00000   0.00000  -0.00000   0.00002   0.00002   0.00001
   D35       -3.14156   0.00000  -0.00000   0.00001   0.00001  -3.14155
   D36        0.00003  -0.00000  -0.00000  -0.00000  -0.00000   0.00003
   D37        0.00002  -0.00000   0.00002  -0.00020  -0.00018  -0.00016
   D38       -3.14159  -0.00000   0.00001  -0.00007  -0.00006   3.14154
   D39       -3.14158  -0.00000   0.00001  -0.00017  -0.00016   3.14145
   D40        0.00000  -0.00000   0.00000  -0.00004  -0.00004  -0.00003
   D41       -0.00002   0.00000  -0.00001   0.00018   0.00017   0.00015
   D42        3.14159   0.00000  -0.00000   0.00002   0.00002  -3.14158
   D43        3.14158   0.00000  -0.00001   0.00016   0.00015  -3.14146
   D44       -0.00000  -0.00000   0.00000  -0.00001  -0.00000  -0.00001
   D45       -3.14106  -0.00006   0.00041  -0.00813  -0.00772   3.13441
   D46       -0.00052   0.00006  -0.00040   0.00799   0.00759   0.00707
   D47        0.00053  -0.00006   0.00040  -0.00809  -0.00769  -0.00716
   D48        3.14107   0.00006  -0.00040   0.00802   0.00762  -3.13450
         Item               Value     Threshold  Converged?
 Maximum Force            0.028517     0.000450     NO 
 RMS     Force            0.003568     0.000300     NO 
 Maximum Displacement     0.093129     0.001800     NO 
 RMS     Displacement     0.016418     0.001200     NO 
 Predicted change in Energy=-2.083467D-03
 GradGradGradGradGradGradGradGradGradGradGradGradGradGradGradGradGradGrad

                          Input orientation:                          
 ---------------------------------------------------------------------
 Center     Atomic      Atomic             Coordinates (Angstroms)
 Number     Number       Type             X           Y           Z
 ---------------------------------------------------------------------
      1          6           0       -0.153269   -0.619576   -0.000902
      2          6           0       -0.175249    0.795732   -0.000792
      3          6           0       -1.414984    1.465166   -0.000149
      4          6           0       -2.570670    0.719290    0.000373
      5          6           0       -2.523542   -0.696984    0.000247
      6          6           0       -1.328539   -1.383610   -0.000402
      7          6           0        1.972868    0.099031   -0.002003
      8          6           0        1.190008    1.227595   -0.001403
      9          1           0       -1.477166    2.548743   -0.000038
     10          1           0       -1.306539   -2.469063   -0.000492
     11          1           0        1.556044    2.244198   -0.001498
     12          8           0       -3.792974    1.343677    0.001033
     13          1           0       -4.484502    0.665485    0.001339
     14          8           0       -3.758394   -1.298157    0.000837
     15          1           0       -3.680365   -2.260790    0.000765
     16          7           0        1.158402   -1.014893   -0.001579
     17          1           0        1.518773   -1.957481   -0.001882
     18          6           0        3.463897   -0.080094   -0.002949
     19          8           0        3.869599   -1.272302    0.004838
     20          8           0        4.163505    0.952682    0.004559
 ---------------------------------------------------------------------
                    Distance matrix (angstroms):
                    1          2          3          4          5
     1  C    0.000000
     2  C    1.415479   0.000000
     3  C    2.436817   1.408931   0.000000
     4  C    2.763402   2.396640   1.375478   0.000000
     5  C    2.371537   2.782568   2.429773   1.417058   0.000000
     6  C    1.401788   2.465687   2.850087   2.442351   1.378219
     7  C    2.244294   2.258274   3.652926   4.585680   4.566328
     8  C    2.283952   1.431934   2.615803   3.794875   4.182639
     9  H    3.433795   2.183583   1.085360   2.131349   3.410227
    10  H    2.179595   3.455243   3.935723   3.429814   2.149735
    11  H    3.335110   2.257306   3.071466   4.399445   5.029273
    12  O    4.135435   3.658986   2.381091   1.372548   2.403280
    13  H    4.517850   4.311222   3.171976   1.914589   2.387821
    14  O    3.668433   4.150097   3.623192   2.341107   1.373414
[...]
 016,0.00238340,-0.00000063,-0.00000006,0.00198511,-0.00000111,0.000002
 45,-0.05461924,-0.00000367,-0.00001248,0.11404714,-0.08428980,-0.01836
 190,0.00000063,-0.06443218,0.01389829,-0.00000040,0.00779677,-0.005396
 29,0.00000005,-0.00324577,-0.01411406,0.00000036,-0.00088160,0.0126163
 3,-0.00000024,0.00739820,0.00681206,-0.00000017,0.74031753,-0.02889403
 ,0.00510279,0.00000020,0.05556359,0.01285859,-0.00000006,-0.01915049,0
 .00014287,0.00000018,0.00398758,0.01258956,-0.00000022,0.00678521,-0.0
 1124490,0.00000018,-0.00161190,-0.00102317,-0.00000011,-0.07235321,0.6
 8877643,0.00000155,0.00000001,0.01238817,-0.00000049,0.00000038,0.0109
 9611,0.,-0.00000002,0.00269642,0.00000005,0.00000017,0.00122313,0.0000
 0004,-0.00000016,0.00059454,-0.00000036,0.00000003,0.00180708,-0.00000
 133,-0.00001231,0.13369152,0.00450175,-0.04231932,0.00000067,-0.244479
 41,-0.05994078,0.00000232,-0.04580371,-0.00451660,0.00000030,0.0099091
 1,0.02334795,-0.00000054,0.00743046,-0.01873552,0.00000030,-0.01161675
 ,0.00088670,-0.00000020,-0.19534782,0.13096752,-0.00000379,0.58657259,
 -0.02079217,-0.02879798,0.00000091,-0.06118604,-0.13169002,0.00000146,
 0.01807673,0.01527824,-0.00000038,0.00213052,-0.00244152,0.00000012,0.
 00050230,-0.00069903,-0.00000001,0.00050095,-0.00600027,0.00000025,0.1
 3951409,-0.31018581,0.00000488,0.03399057,0.86726799,0.00000022,0.0000
 0092,0.01019111,0.00000177,0.00000143,-0.06058151,-0.00000002,-0.00000
 028,0.00011464,-0.00000007,-0.00000012,0.00461374,-0.00000006,0.000000
 21,-0.00145624,0.00000013,0.00000021,0.00213329,-0.00000347,0.00000515
 ,-0.06487498,-0.00000213,-0.00001569,0.11891273,-0.00407351,0.00137388
 ,0.00000004,0.00580816,0.02766099,-0.00000056,-0.06105384,0.01603032,-
 0.00000013,0.00595267,-0.02672365,0.00000050,-0.00402178,-0.00110503,0
 .00000011,-0.00124992,-0.00006150,0.,0.00042892,0.00024633,-0.00000002
 ,0.00138995,-0.00099051,0.,0.05483689,0.00180187,0.00147824,0.00000006
 ,-0.00100666,-0.00908368,0.00000024,0.01297678,-0.34474880,0.00000585,
 0.00434522,-0.01368276,0.00000034,-0.00217853,0.00097041,0.00000013,-0
 .00008848,0.00028342,-0.00000003,0.00037551,-0.00039816,0.,-0.00072037
 ,0.00108654,-0.00000007,-0.01668400,0.36473242,-0.00000004,0.00000008,
 0.00545055,-0.00000008,0.00000006,0.00271739,-0.00000003,0.00000575,-0
 .03432776,-0.00000007,0.00000059,0.00601662,0.00000013,0.00000015,0.00
 675801,0.00000002,-0.00000003,-0.00111719,-0.00000003,0.,-0.00031111,0
 .00000003,-0.00000007,-0.00290995,0.00000011,-0.00000643,0.02309501,0.
 00794934,-0.02739842,0.00000052,-0.00397982,-0.00141303,0.00000007,-0.
 00135576,0.00000574,0.,-0.00431865,0.00096084,0.00000005,0.00361870,0.
 02744011,-0.00000052,-0.06130281,0.00588351,0.00000010,0.00001156,-0.0
 0055250,0.,-0.00011042,-0.00154608,0.00000003,0.00013589,-0.00003733,0
 .,0.05669894,0.00317082,-0.01164711,0.00000028,-0.00249318,0.00111165,
 0.00000009,-0.00003796,0.00039792,-0.00000003,0.00174538,0.00147148,0.
 00000008,-0.00343702,-0.01169941,0.00000035,0.00688890,-0.34485895,0.0
 0000600,-0.00065061,-0.00034036,0.,0.00018346,-0.00070490,0.,0.0000330
 1,-0.00013680,0.,-0.00634637,0.36511402,-0.00000011,0.00000045,0.00334
 990,0.00000009,0.00000009,0.00491553,0.00000002,-0.00000002,-0.0010300
 0,0.00000002,0.00000007,0.00606720,0.00000011,0.00000020,0.00485850,0.
 00000005,0.00000601,-0.03139086,0.,0.,-0.00045941,0.00000001,0.0000000
 2,-0.00011212,0.,0.,-0.00049244,-0.00000009,-0.00000649,0.02151377,-0.
 00603573,-0.00074182,0.00000006,0.00018521,-0.02483794,0.00000040,0.00
 189705,0.00045187,-0.00000003,0.00007236,-0.00026760,0.00000001,0.0003
 0117,0.00034626,-0.00000001,0.00084309,-0.00140557,0.00000003,0.012741
 46,0.01480863,-0.00000027,-0.09226622,-0.09774262,0.00000216,-0.000217
 36,0.00050599,-0.00000001,-0.00040184,-0.00023280,0.,0.08455611,0.0001
 4993,-0.00004529,0.00000004,0.00159365,0.00067690,-0.00000003,-0.00002
 583,0.00029687,-0.00000004,-0.00008497,-0.00049186,0.,0.00003446,0.000
 51646,-0.00000001,0.00029541,-0.00002957,0.00000002,-0.01205640,-0.012
 17232,0.00000026,-0.09427019,-0.32749568,0.00000624,-0.00036424,-0.000
 11648,0.,-0.00005413,0.00000463,0.,0.10558045,0.34114452,0.00000008,0.
 00000003,0.00292106,0.00000006,0.00000008,-0.00033194,-0.00000004,-0.0
 0000004,-0.00154996,0.00000001,0.00000001,-0.00027772,0.00000001,-0.00
 000002,-0.00013981,-0.00000001,0.00000003,0.00070857,0.00000056,-0.000
 00017,0.00014965,0.00000192,0.00000672,-0.02648302,0.,0.,0.00004334,0.
 ,0.,0.00020522,-0.00000222,-0.00000651,0.02086032,0.00343833,-0.003313
 20,-0.00000003,-0.00252822,-0.00214450,0.00000014,-0.04766120,0.019202
 90,0.00000005,-0.25465472,0.10229956,-0.00000047,-0.02493127,0.0134376
 0,0.,0.00056199,-0.00064943,0.00000007,-0.00301497,0.00550143,-0.00000
 012,0.00277337,0.00086978,-0.00000006,0.00294104,0.00071951,-0.0000000
 9,-0.00045451,0.00058886,0.,-0.00017067,-0.00027494,0.,0.59408030,0.00
 084102,0.00495539,-0.00000011,0.00084279,-0.00814266,0.00000029,-0.022
 29011,0.02231067,-0.00000020,0.05260624,-0.14835529,0.00000223,0.04680
 516,-0.02885333,0.00000034,-0.00737695,-0.00550810,0.00000024,0.001661
 83,-0.00345209,0.00000002,-0.00331952,0.00112722,0.00000003,0.00078215
 ,0.00120938,-0.00000011,0.00171976,-0.00083146,0.,0.00006608,0.0001054
 4,0.,0.12586523,0.44695480,-0.00000006,-0.00000009,-0.00181680,0.00000
 006,0.00000029,0.00572378,0.00000089,-0.00000054,0.00558385,0.00000089
 ,0.00000176,-0.03420939,-0.00000076,0.00000053,0.00563627,0.00000018,0
 .00000021,0.00505664,0.,0.00000002,-0.00045574,0.00000005,-0.00000002,
 0.00082325,-0.00000006,-0.00000011,-0.00430704,-0.00000003,0.00000001,
 0.00006683,0.,0.,0.00004691,-0.00000933,-0.00001217,0.02311048,0.00013
 268,0.00077897,0.,-0.00016454,-0.00188914,0.00000005,-0.00383581,0.004
 81263,-0.00000004,-0.03729007,-0.02586824,0.00000103,-0.00103208,-0.00
 116169,0.00000005,-0.00111382,-0.00116019,0.00000002,0.00047169,-0.000
 48654,0.,-0.00040356,0.00028976,0.,0.00021795,0.00014265,0.,0.00033810
 ,-0.00015638,0.,0.00002408,0.00002529,0.,-0.26976761,-0.20548799,0.000
 00833,0.31085379,-0.00057151,0.00018583,0.,0.00048277,0.00069480,0.000
 00003,0.00422755,-0.00202679,0.00000004,0.01604754,0.01511101,-0.00000
 066,0.00876577,0.00072216,-0.00000008,-0.00072720,-0.00028606,0.,-0.00
 018694,-0.00060035,0.,-0.00017394,-0.00007560,0.,0.00001191,0.00009808
 ,-0.00000002,0.00017786,-0.00004730,0.,-0.00000693,0.00000791,0.,-0.25
 722958,-0.28187134,0.00001010,0.23118221,0.26785511,0.,0.,0.00004934,0
 .,0.00000002,0.00171484,-0.00000009,0.00000004,0.00092731,-0.00000014,
 -0.00000020,-0.00384439,-0.00000015,0.00000004,0.00210828,0.00000003,0
 .00000002,-0.00053777,0.,0.,-0.00014336,0.,0.,0.00021871,0.,-0.0000000
 2,-0.00078183,0.,0.,0.00002183,0.,0.,0.00002129,0.00000974,0.00000954,
 -0.00289625,-0.00000940,-0.00000929,0.00478379,-0.00379225,0.00354938,
 -0.00000003,-0.00192895,0.00094076,0.00000001,0.00291184,0.00314464,0.
 00000003,-0.01718259,-0.01593724,0.00000057,-0.26216033,-0.04496522,0.
 00000186,-0.04421575,-0.02524040,0.00000084,-0.00826785,-0.00409294,0.
 00000009,-0.00195900,0.00123859,-0.00000009,0.00001972,-0.00035122,0.,
 0.00370780,-0.00057151,-0.00000008,-0.00036166,-0.00029645,-0.00000001
 ,0.00785922,0.00198268,-0.00000015,0.00035656,-0.00044559,0.00000003,0
 .36703500,-0.00211649,-0.00778197,0.00000028,-0.00333715,0.00412170,-0
 .00000008,0.00948233,-0.00496140,0.00000011,-0.05183075,-0.03924975,0.
 00000136,-0.09346518,-0.14077301,0.00000338,0.01491298,0.01573075,-0.0
 0000033,-0.00530243,-0.00199259,0.00000009,0.00011073,0.00125898,-0.00
 000008,-0.00177334,-0.00109273,0.00000002,0.00025557,0.00209838,-0.000
 00020,-0.00016766,-0.00018460,0.,-0.00469783,-0.00156108,0.00000003,-0
 .00111217,0.00081214,-0.00000015,0.05559461,0.69175258,0.00000010,0.00
 000021,0.00723175,-0.00000003,-0.00000011,-0.00163983,-0.00000010,0.00
 000025,0.00338875,0.00000134,0.00000095,0.00672607,0.00000388,0.000003
 57,-0.03562761,0.00000007,0.00000008,0.00548186,0.00000012,0.00000006,
 -0.00054219,0.00000006,-0.00000003,0.00037022,0.00000006,0.00000003,0.
 00006073,-0.00000008,-0.00000015,-0.00473427,0.,0.,0.00000485,0.000000
 05,0.00000004,-0.00308388,0.00000002,-0.00000024,-0.00034354,-0.000002
 32,-0.00002500,0.02163951,-0.00091366,-0.00006914,-0.00000003,0.000114
 91,0.00029027,0.,0.00103895,-0.00113893,0.,-0.00780254,-0.00139305,0.0
 0000012,-0.00119285,-0.04633232,0.00000165,0.00230348,-0.00101495,-0.0
 0000007,0.00002825,-0.00030280,0.00000002,-0.00001993,0.00022082,0.,-0
 .00034183,-0.00015929,0.,-0.00193739,0.00123656,0.,0.00004582,0.000019
 86,0.,0.00113328,0.00230934,-0.00000002,0.00077719,-0.00264708,0.,-0.0
 4763876,0.07874360,-0.00000309,0.05373391,0.00072003,-0.00054183,-0.00
 000005,0.00030286,0.00003335,0.,-0.00005626,-0.00089017,0.00000004,-0.
 00070553,0.00111660,0.00000006,0.00159640,-0.01984529,0.00000051,0.002
 82899,0.00424253,-0.00000008,0.00094898,0.00040791,0.,0.00018359,-0.00
 014523,0.00000001,-0.00017094,0.00006541,0.,-0.00081647,-0.00076352,-0
 .00000003,0.00003906,0.00002985,0.,-0.00114672,0.00095475,0.,-0.000050
 93,-0.00038985,-0.00000002,0.02676498,-0.51918148,0.00002028,-0.029943
 45,0.53471497,-0.00000002,0.00000005,-0.00048837,0.00000003,-0.0000000
 2,-0.00001829,-0.00000004,0.,0.00101676,0.00000009,-0.00000002,0.00166
 703,-0.00000037,0.00000036,-0.00302329,-0.00000012,-0.00000013,-0.0000
 4745,0.00000002,0.00000001,0.00008999,0.,0.,0.00000174,0.,0.,-0.000236
 53,0.00000001,-0.00000007,-0.00007613,0.,0.,0.00000525,-0.00000007,-0.
 00000010,0.00047163,-0.00000004,0.00000010,-0.00122492,-0.00000088,0.0
 0002054,-0.00047429,0.00000143,-0.00002069,0.00248984,-0.30344092,0.06
 762962,0.00000037,-0.01856839,0.04452778,-0.00000050,-0.00475993,-0.00
 325936,0.00000003,0.00673491,0.00708602,-0.00000025,0.00434071,-0.0091
 3936,0.00000018,-0.04259539,0.00501178,0.00000029,-0.17421824,-0.08850
 899,0.00000019,-0.00105877,-0.01208332,0.00000047,-0.00034806,0.000265
 03,0.00000004,0.00209370,0.00060750,-0.00000005,-0.00228734,0.00247387
 ,-0.00000014,-0.01007770,0.00344903,0.,0.00057782,0.00100451,0.,0.0033
 9232,0.00327346,-0.00000007,0.00066743,-0.00023949,-0.00000003,0.69775
 231,0.04761704,-0.15112518,0.00000182,0.01592443,-0.04622749,0.0000008
 5,0.00792168,-0.00561756,0.00000007,-0.00611246,-0.00842532,0.00000017
 ,-0.00868955,0.00410453,0.00000007,-0.01114396,0.02088487,-0.00000031,
 -0.08626834,-0.24175563,0.00000395,0.01564849,-0.08571622,0.00000181,0
 .00187862,-0.00079293,0.00000002,0.00149680,0.00134203,-0.00000010,0.0
 0445359,-0.00285622,0.00000007,0.00152768,0.00061728,-0.00000002,0.000
 02745,-0.00016288,0.,-0.00007003,0.00134804,0.,0.00010070,0.00003526,-
 0.00000002,-0.11598603,0.92186981,-0.00000029,0.00000169,-0.05181800,-
 0.00000078,0.00000075,0.01179989,0.00000023,0.00000018,0.00181679,-0.0
 0000006,-0.00000028,-0.00164394,-0.00000002,0.00000041,0.00376603,0.00
 000083,-0.00000032,-0.00007741,0.00000079,0.00000408,-0.05405920,0.000
 00043,0.00000184,0.01407076,-0.00000004,0.00000002,-0.00004761,-0.0000
 0005,-0.00000009,-0.00267325,-0.00000006,0.00000019,0.00487329,0.00000
 001,0.,0.00043371,0.,0.,-0.00001860,-0.00000007,-0.00000007,0.00183338
 ,-0.00000002,0.,-0.00015957,0.00000113,-0.00001696,0.07166835,-0.00072
 775,0.02710042,-0.00000074,-0.00657406,-0.00026668,0.00000004,0.001305
 21,0.00127534,-0.00000001,-0.00009755,-0.00061322,0.00000001,-0.000679
 58,0.00065131,0.,0.00237810,-0.00030401,0.,0.01667227,-0.01448156,0.00
 000041,-0.00210444,-0.00582655,0.00000010,-0.00032480,0.00012515,0.,-0
 .00072234,-0.00062305,0.00000002,0.00101765,-0.00083549,0.,-0.00001015
 ,-0.00001800,0.,-0.00001736,0.00003093,0.,0.00048896,0.00013228,0.,-0.
 00004427,-0.00005455,0.,-0.12059271,0.13113204,-0.00000255,0.10670291,
 0.00125027,0.00274960,-0.00000021,0.00046632,0.00235236,0.00000002,-0.
 00080730,0.00000747,0.00000003,0.00080759,0.00046539,-0.00000002,0.000
 84960,-0.00063584,0.,-0.00129078,0.00085152,-0.00000004,0.01181770,-0.
 01774499,0.00000036,-0.00465170,-0.00099166,0.00000005,-0.00005627,0.0
 0013446,0.,0.00016013,-0.00050025,0.,0.00062280,-0.00029177,0.00000004
 ,-0.00082926,0.00025875,0.,0.00007261,0.00004329,0.,-0.00056564,-0.000
 23389,0.00000001,0.00003940,0.00007573,0.,0.12888309,-0.41634001,0.000
 00871,-0.13932862,0.42996852,0.00000009,-0.00000050,-0.00682367,0.0000
 0005,0.00000004,0.00197393,0.00000003,0.,0.00162297,-0.00000002,-0.000
 00002,-0.00026410,-0.00000002,0.00000002,-0.00017276,0.,-0.00000004,-0
 .00133938,-0.00000013,0.00000024,-0.00579998,0.00000007,0.00000005,0.0
 0185478,0.,0.,0.00023365,0.,0.,-0.00008542,0.,0.00000005,0.00213931,0.
 ,0.,-0.00000888,0.,0.,-0.00001583,0.00000002,0.00000001,0.00009755,0.,
 0.,-0.00000241,-0.00000273,0.00000898,-0.00121921,0.00000292,-0.000008
 97,0.01063653,0.01436064,-0.00010855,0.00000005,0.01098461,-0.00018449
 ,0.00000033,-0.00579015,0.00204157,0.00000003,-0.00004139,0.01074976,-
 0.00000029,-0.00102335,-0.00998305,0.00000024,-0.00450743,-0.00235113,
 0.00000013,-0.17885928,0.00484616,-0.00000489,-0.01446514,0.00936618,0
 .00000064,0.00000390,-0.00052861,0.00000003,0.00019170,0.00062717,0.,-
 0.00022730,-0.00157243,-0.00000015,0.00480950,-0.00233793,0.,-0.000648
 12,-0.00000317,0.,0.00750387,0.00483395,-0.00000014,-0.00015962,-0.000
 86808,-0.00000001,-0.02703343,-0.00905909,0.00000062,0.00087261,-0.000
 45427,-0.00000021,0.59991611,-0.00488997,-0.00626953,-0.00000005,0.003
 00664,-0.00472336,0.00000046,0.00060584,0.00074366,-0.00000002,0.00025
 698,-0.00088409,0.,0.00035145,0.00021286,-0.00000001,-0.00070785,0.001
 29591,0.00000003,0.02087788,-0.08142835,0.00000045,0.01818439,0.005301
 20,-0.00000008,0.00000049,0.00003141,0.00000001,-0.00000053,-0.0000713
 3,0.,-0.00084379,-0.00130822,-0.00000003,-0.00001499,0.00014226,0.,0.0
 0007079,-0.00006498,0.,-0.00125926,-0.00059843,0.00000001,0.00002179,0
 .00015022,0.,-0.02386930,0.00509138,-0.00000091,-0.00433049,-0.0025804
 1,0.00000025,0.05229449,0.86647291,0.00000037,-0.00000010,0.00110785,-
 0.00000035,0.00000038,0.00619834,-0.00000003,-0.00000004,0.00170426,0.
 00000008,-0.00000006,-0.00036458,0.00000014,0.00000004,0.00047848,-0.0
 0000020,0.00000006,0.00275219,-0.00000030,0.00000049,-0.07671642,-0.00
 000005,-0.00000101,0.00165931,0.,0.00000002,0.00019014,0.,-0.00000001,
 0.00003586,0.00000002,0.00000011,-0.00398458,-0.00000016,0.00000004,-0
 .00028226,0.00000001,0.,-0.00006328,-0.00000015,-0.00000009,-0.0006285
 2,0.00000001,0.00000002,0.00003743,-0.00000013,0.00000030,-0.00223261,
 0.00000001,-0.00000002,-0.00151699,-0.00003454,-0.00002736,0.22019633,
 -0.00132058,0.00049868,0.00000013,-0.00498116,0.00327043,-0.00000029,0
 .00151762,-0.00099041,-0.00000004,0.00025772,-0.00342551,0.00000011,0.
 00028272,0.00345416,-0.00000009,0.00159742,0.00066215,-0.00000002,-0.0
 3061880,0.04883624,0.00000227,-0.00447215,-0.00476337,0.00000006,-0.00
 005309,0.00024643,-0.00000001,-0.00007921,-0.00024468,0.,0.00025419,0.
 00041967,0.00000003,-0.00219308,0.00091685,0.,0.00024103,0.00005689,0.
 ,-0.00246227,-0.00159314,0.00000004,0.00009535,0.00028495,0.,-0.002073
 02,0.00409658,-0.00000026,0.00200153,0.00229078,-0.00000012,-0.1584299
 9,0.12717391,0.00000592,0.16174704,0.00574284,0.00058813,0.,0.00324579
 ,-0.00034758,0.00000005,-0.00134943,0.00095433,0.00000002,0.00010060,0
 .00282912,-0.00000009,-0.00019118,-0.00281493,0.00000008,-0.00156029,-
 0.00062297,0.00000001,0.03024123,-0.03104846,-0.00000165,0.00105474,0.
 00551250,0.,-0.00005059,-0.00013398,0.,0.00007619,0.00016898,0.,-0.000
 23842,0.00047491,-0.00000006,0.00121342,-0.00054034,0.,-0.00015539,-0.
 00000225,0.,0.00198626,0.00132856,-0.00000003,-0.00002858,-0.00023095,
 0.,-0.00875978,-0.00066518,0.00000065,0.00401721,0.00140026,-0.0000000
 8,0.14626942,-0.42793677,-0.00001148,-0.15890273,0.57217203,0.00000003
 ,0.00000009,0.00052210,0.00000014,-0.00000024,-0.00146279,0.00000003,0
 .00000005,-0.00045137,-0.00000004,0.00000005,0.00007359,-0.00000005,-0
 .00000006,-0.00008644,0.00000003,-0.00000002,-0.00030827,0.00000045,-0
 .00000154,0.02106769,0.00000042,0.00000042,0.00191907,0.,-0.00000001,-
 0.00003446,0.,0.00000001,0.00001208,-0.00000001,-0.00000002,0.00036439
 ,0.00000009,-0.00000002,0.00007332,0.,0.,0.00002188,0.00000010,0.00000
 006,0.00007794,0.,-0.00000001,-0.00001251,-0.00000014,-0.00000006,0.00
 087420,0.00000001,0.00000015,-0.00156347,0.00000683,-0.00001111,-0.074
 38083,-0.00000720,0.00000545,0.02807588,-0.00428517,-0.00388988,-0.000
 00012,-0.00184199,0.00033020,0.00000010,0.00178979,-0.00061708,-0.0000
 0001,0.00044967,-0.00374240,0.00000008,0.00076022,0.00321575,-0.000000
 08,0.00059648,0.00140535,-0.00000018,-0.04269035,-0.04110774,0.0000066
 5,0.00153010,-0.00176961,0.00000032,-0.00005092,0.00025035,0.,-0.00008
 300,-0.00028808,0.,0.00002992,-0.00075752,-0.00000012,-0.00213294,0.00
 098233,0.,0.00028207,0.00000400,0.,-0.00330591,-0.00194340,0.00000008,
 0.00011229,0.00038259,0.,-0.00850531,0.00550437,0.00000016,0.00045578,
 0.00072355,0.00000006,-0.24745774,-0.18692848,0.00002933,0.03868873,-0
 .02271132,-0.00000069,0.26565827,-0.00135305,0.00004894,-0.00000006,-0
 .00290917,0.00042615,-0.00000013,0.00124088,-0.00024249,-0.00000001,0.
 00004687,-0.00199528,0.00000005,0.00032687,0.00162857,-0.00000004,0.00
 028607,0.00063568,-0.00000008,-0.02407372,-0.00649097,0.00000354,0.004
 08979,-0.00188875,0.00000022,-0.00003763,0.00009655,0.,-0.00001165,-0.
 00010769,0.,-0.00038959,0.00173450,-0.00000015,-0.00092551,0.00047976,
 0.,0.00012630,-0.00000294,0.,-0.00140643,-0.00084021,0.00000004,0.0000
 4724,0.00016174,0.,-0.00236605,0.00439141,0.00000010,0.00221753,0.0010
 1146,-0.00000003,-0.20357789,-0.35357636,0.00003870,-0.02228787,-0.121
 08540,0.00000683,0.25095701,0.47561532,-0.00000005,0.00000033,-0.00015
 754,0.00000035,-0.00000011,-0.00015229,-0.00000010,0.00000004,-0.00016
 233,-0.00000006,0.00000021,0.00000700,-0.00000010,-0.00000015,-0.00008
 685,0.00000012,-0.00000011,-0.00073859,0.00000307,0.00000378,0.0186580
 9,0.00000013,0.00000055,-0.00046553,0.,-0.00000002,0.00000045,0.,0.000
 00002,0.00000718,-0.00000006,-0.00000031,0.00042356,0.00000018,-0.0000
 0008,0.00003357,-0.00000002,0.,0.00000253,0.00000022,0.00000012,0.0001
 6153,-0.00000001,-0.00000003,-0.00001593,0.00000133,-0.00000067,0.0028
 1301,-0.00000021,-0.00000012,0.00025339,0.00003133,0.00003836,-0.07419
 011,-0.00000054,0.00000714,0.02521800,-0.00003559,-0.00004896,0.028390
 85\\0.00001857,0.00002293,0.00000060,0.00000733,-0.00004018,0.00000012
 ,-0.00003548,-0.00000038,0.,0.00001199,0.00003474,0.00000011,0.0000299
 4,-0.00003397,-0.00000011,-0.00003780,-0.00000230,0.00000017,-0.000109
 58,0.00003316,-0.00000650,-0.00000543,-0.00000398,-0.00000034,0.000009
 55,-0.00000200,0.00000004,0.00000050,-0.00000118,-0.00000003,0.0000163
 0,-0.00000223,-0.00000021,-0.00000168,-0.00000760,-0.00000004,-0.00000
 149,-0.00000431,0.00000002,-0.00000790,0.00000036,-0.00000005,0.000000
 81,-0.00000150,0.00000010,0.00005965,0.00001023,-0.00000141,-0.0000423
 5,-0.00000834,0.00000002,0.00016219,-0.00008143,0.00002636,-0.00006497
 ,0.00001357,-0.00000922,-0.00001016,0.00007441,-0.00000963\\\@
 The archive entry for this job was punched.


 IF I AM NOT FOR MYSELF, WHO WILL BE?
 BUT IF I AM ONLY FOR MYSELF, WHAT AM I?
 THOUGH A SEEKER SINCE MY BIRTH,
 HERE IS ALL I'VE LEARNED ON EARTH,
 THIS IS THE GIST OF WHAT I KNOW:
 GIVE ADVICE AND BUY A FOE.

 PRESSED FOR RULES AND VERITIES,
 ALL I RECOLLECT ARE THESE:
 FEED A COLD TO STARVE A FEVER,
 ARGUE WITH NO TRUE-BELIEVER.
 THINK-TOO-LONG IS NEVER-ACT,
 SCRATCH A MYTH AND FIND A FACT.

 STITCH IN TIME SAVES TWENTY STITCHES,
 GIVE THE RICH TO PLEASE THEM, RICHES.
 GIVE TO LOVE YOU HEARTH AND HALL,
 BUT DO NOT GIVE ADVICE AT ALL.

                                  -- HILLEL
 Job cpu time:       0 days  5 hours 24 minutes 49.8 seconds.
 Elapsed time:       0 days  0 hours 20 minutes 19.4 seconds.
 File lengths (MBytes):  RWF=    337 Int=      0 D2E=      0 Chk=     14 Scr=      2
 Normal termination of Gaussian 16 at Fri Oct 23 01:21:40 2020.
