 Entering Gaussian System, Link 0=/home/software/apps/gaussian/g16/g16
 Initial command:
 /home/software/apps/gaussian/g16/l1.exe "/nfs/scratch/humepa/Gau-39886.inp" -scrdir="/nfs/scratch/humepa/"
 Entering Link 1 = /home/software/apps/gaussian/g16/l1.exe PID=     39888.
  
 Copyright (c) 1988-2019, Gaussian, Inc.  All Rights Reserved.
  
 This is part of the Gaussian(R) 16 program.  It is based on
 the Gaussian(R) 09 system (copyright 2009, Gaussian, Inc.),
 the Gaussian(R) 03 system (copyright 2003, Gaussian, Inc.),
 the Gaussian(R) 98 system (copyright 1998, Gaussian, Inc.),
 the Gaussian(R) 94 system (copyright 1995, Gaussian, Inc.),
 the Gaussian 92(TM) system (copyright 1992, Gaussian, Inc.),
 the Gaussian 90(TM) system (copyright 1990, Gaussian, Inc.),
 the Gaussian 88(TM) system (copyright 1988, Gaussian, Inc.),
 the Gaussian 86(TM) system (copyright 1986, Carnegie Mellon
 University), and the Gaussian 82(TM) system (copyright 1983,
 Carnegie Mellon University). Gaussian is a federally registered
 trademark of Gaussian, Inc.
  
 This software contains proprietary and confidential information,
 including trade secrets, belonging to Gaussian, Inc.
  
 This software is provided under written license and may be
 used, copied, transmitted, or stored only in accord with that
 written license.
  
 The following legend is applicable only to US Government
 contracts under FAR:
  
                    RESTRICTED RIGHTS LEGEND
  
 Use, reproduction and disclosure by the US Government is
 subject to restrictions as set forth in subparagraphs (a)
 and (c) of the Commercial Computer Software - Restricted
 Rights clause in FAR 52.227-19.
  
 Gaussian, Inc.
 340 Quinnipiac St., Bldg. 40, Wallingford CT 06492
  
  
 ---------------------------------------------------------------
 Warning -- This program may not be used in any manner that
 competes with the business of Gaussian, Inc. or will provide
 assistance to any competitor of Gaussian, Inc.  The licensee
 of this program is prohibited from giving any competitor of
 Gaussian, Inc. access to this program.  By using this program,
 the user acknowledges that Gaussian, Inc. is engaged in the
 business of creating and licensing software in the field of
 computational chemistry and represents and warrants to the
 licensee that it is not a competitor of Gaussian, Inc. and that
 it will not use this program in any manner prohibited above.
 ---------------------------------------------------------------
  

 Cite this work as:
 Gaussian 16, Revision C.01,
 M. J. Frisch, G. W. Trucks, H. B. Schlegel, G. E. Scuseria, 
 M. A. Robb, J. R. Cheeseman, G. Scalmani, V. Barone, 
 G. A. Petersson, H. Nakatsuji, X. Li, M. Caricato, A. V. Marenich, 
 J. Bloino, B. G. Janesko, R. Gomperts, B. Mennucci, H. P. Hratchian, 
 J. V. Ortiz, A. F. Izmaylov, J. L. Sonnenberg, D. Williams-Young, 
 F. Ding, F. Lipparini, F. Egidi, J. Goings, B. Peng, A. Petrone, 
 T. Henderson, D. Ranasinghe, V. G. Zakrzewski, J. Gao, N. Rega, 
 G. Zheng, W. Liang, M. Hada, M. Ehara, K. Toyota, R. Fukuda, 
 J. Hasegawa, M. Ishida, T. Nakajima, Y. Honda, O. Kitao, H. Nakai, 
 T. Vreven, K. Throssell, J. A. Montgomery, Jr., J. E. Peralta, 
 F. Ogliaro, M. J. Bearpark, J. J. Heyd, E. N. Brothers, K. N. Kudin, 
 V. N. Staroverov, T. A. Keith, R. Kobayashi, J. Normand, 
 K. Raghavachari, A. P. Rendell, J. C. Burant, S. S. Iyengar, 
 J. Tomasi, M. Cossi, J. M. Millam, M. Klene, C. Adamo, R. Cammi, 
 J. W. Ochterski, R. L. Martin, K. Morokuma, O. Farkas, 
 J. B. Foresman, and D. J. Fox, Gaussian, Inc., Wallingford CT, 2019.
 
 ******************************************
 Gaussian 16:  ES64L-G16RevC.01  3-Jul-2019
                20-May-2021 
 ******************************************
 %nprocshared=16
 Will use up to   16 processors via shared memory.
 %mem=60GB
 %chk=K2Aexc.chk
 Default route: MaxDisk=2TB
 ----------------------------------------------------------------------
 # td(nstates=5) opt cam-b3lyp/6-31+G(d,p) freq=raman int=(ultrafine,ac
 c2e=11) scrf=(solvent=water) maxdisk=1TB nosymm
 ----------------------------------------------------------------------
 1/18=20,19=15,26=6,38=1/1,3;
 2/9=110,12=2,15=1,17=6,18=5,40=1/2;
 3/5=1,6=6,7=111,11=9,25=1,27=11,30=1,70=2201,71=1,72=1,74=-40,75=-5/1,2,3,8;
 4//1;
 5/5=2,38=5,53=1,87=11/2;
 8/6=1,10=2,87=11,108=5/1;
 9/15=2,41=5,42=1,70=2,87=11/14;
 10/5=4,31=1,87=11/2;
 6/7=2,8=2,9=2,10=2,87=11/1;
 7/12=6,13=5,30=1,87=11/1,2,3,16;
 1/18=20,19=15,26=6/3(2);
 2/9=110,15=1/2;
 99//99;
 2/9=110,15=1/2;
 3/5=1,6=6,7=111,11=9,25=1,27=11,30=1,70=2205,71=1,72=1,74=-40,75=-5/1,2,3,8;
 4/5=5,16=3,69=1/1;
 5/5=2,38=5,53=1,87=11/2;
 8/6=1,10=2,87=11,108=5/1;
 9/15=2,41=5,42=1,49=4,70=2,87=11/14;
 10/5=4,31=1,87=11/2;
 7/12=6,13=5,30=1,87=11/1,2,3,16;
 1/18=20,19=15,26=6/3(-8);
 2/9=110,15=1/2;
 6/7=2,8=2,9=2,10=2,87=11/1;
 99/9=10/99;
 ------
 K2Aexc
 ------
 Symbolic Z-matrix:
 Charge = -1 Multiplicity = 1
 C                     0.09755   0.60684   0.00002 
 C                     0.13156  -0.808    -0.00001 
 C                     1.37799  -1.4641   -0.00001 
 C                     2.5273   -0.70701   0.00001 
 C                     2.46761   0.70789   0.00004 
 C                     1.26519   1.38245   0.00004 
 C                    -2.02426  -0.13223   0. 
 C                    -1.23098  -1.25298  -0.00002 
 H                     1.45148  -2.54686  -0.00003 
 H                     1.23251   2.4676    0.00007 
 H                    -1.58602  -2.27313  -0.00004 
 O                     3.75537  -1.3204    0.00001 
 H                     4.44168  -0.63686   0.00003 
 O                     3.69683   1.32143   0.00006 
 H                     3.60962   2.28321   0.0001 
 N                    -1.21929   0.98653   0.00002 
 H                    -1.59472   1.92312   0.00004 
 C                    -3.51764   0.03242   0.00001 
 O                    -3.93528   1.22393  -0.00003 
 O                    -4.21511  -1.01426  -0.00013 
 

 GradGradGradGradGradGradGradGradGradGradGradGradGradGradGradGradGradGrad
 Berny optimization.
 Initialization pass.
                           ----------------------------
                           !    Initial Parameters    !
                           ! (Angstroms and Degrees)  !
 --------------------------                            --------------------------
 ! Name  Definition              Value          Derivative Info.                !
 --------------------------------------------------------------------------------
 ! R1    R(1,2)                  1.4152         estimate D2E/DX2                !
 ! R2    R(1,6)                  1.4018         estimate D2E/DX2                !
 ! R3    R(1,16)                 1.3705         estimate D2E/DX2                !
 ! R4    R(2,3)                  1.4086         estimate D2E/DX2                !
 ! R5    R(2,8)                  1.4334         estimate D2E/DX2                !
 ! R6    R(3,4)                  1.3763         estimate D2E/DX2                !
 ! R7    R(3,9)                  1.0853         estimate D2E/DX2                !
 ! R8    R(4,5)                  1.4162         estimate D2E/DX2                !
 ! R9    R(4,12)                 1.3727         estimate D2E/DX2                !
 ! R10   R(5,6)                  1.3787         estimate D2E/DX2                !
 ! R11   R(5,14)                 1.3738         estimate D2E/DX2                !
 ! R12   R(6,10)                 1.0856         estimate D2E/DX2                !
 ! R13   R(7,8)                  1.3731         estimate D2E/DX2                !
 ! R14   R(7,16)                 1.3783         estimate D2E/DX2                !
 ! R15   R(7,18)                 1.5024         estimate D2E/DX2                !
 ! R16   R(8,11)                 1.0802         estimate D2E/DX2                !
 ! R17   R(12,13)                0.9686         estimate D2E/DX2                !
 ! R18   R(14,15)                0.9657         estimate D2E/DX2                !
 ! R19   R(16,17)                1.009          estimate D2E/DX2                !
 ! R20   R(18,19)                1.2626         estimate D2E/DX2                !
 ! R21   R(18,20)                1.2578         estimate D2E/DX2                !
 ! A1    A(2,1,6)              122.2172         estimate D2E/DX2                !
 ! A2    A(2,1,16)             107.4614         estimate D2E/DX2                !
 ! A3    A(6,1,16)             130.3215         estimate D2E/DX2                !
 ! A4    A(1,2,3)              119.1387         estimate D2E/DX2                !
 ! A5    A(1,2,8)              106.7091         estimate D2E/DX2                !
 ! A6    A(3,2,8)              134.1522         estimate D2E/DX2                !
 ! A7    A(2,3,4)              118.8645         estimate D2E/DX2                !
 ! A8    A(2,3,9)              121.6448         estimate D2E/DX2                !
 ! A9    A(4,3,9)              119.4907         estimate D2E/DX2                !
 ! A10   A(3,4,5)              120.958          estimate D2E/DX2                !
 ! A11   A(3,4,12)             120.0854         estimate D2E/DX2                !
 ! A12   A(5,4,12)             118.9567         estimate D2E/DX2                !
 ! A13   A(4,5,6)              121.7085         estimate D2E/DX2                !
 ! A14   A(4,5,14)             114.1093         estimate D2E/DX2                !
 ! A15   A(6,5,14)             124.1822         estimate D2E/DX2                !
 ! A16   A(1,6,5)              117.1132         estimate D2E/DX2                !
 ! A17   A(1,6,10)             121.8689         estimate D2E/DX2                !
 ! A18   A(5,6,10)             121.0179         estimate D2E/DX2                !
 ! A19   A(8,7,16)             108.973          estimate D2E/DX2                !
 ! A20   A(8,7,18)             131.5829         estimate D2E/DX2                !
 ! A21   A(16,7,18)            119.4441         estimate D2E/DX2                !
 ! A22   A(2,8,7)              107.205          estimate D2E/DX2                !
 ! A23   A(2,8,11)             127.2752         estimate D2E/DX2                !
 ! A24   A(7,8,11)             125.5198         estimate D2E/DX2                !
 ! A25   A(4,12,13)            108.5751         estimate D2E/DX2                !
 ! A26   A(5,14,15)            111.3444         estimate D2E/DX2                !
 ! A27   A(1,16,7)             109.6515         estimate D2E/DX2                !
 ! A28   A(1,16,17)            127.9278         estimate D2E/DX2                !
 ! A29   A(7,16,17)            122.4207         estimate D2E/DX2                !
 ! A30   A(7,18,19)            115.6078         estimate D2E/DX2                !
 ! A31   A(7,18,20)            117.3863         estimate D2E/DX2                !
 ! A32   A(19,18,20)           127.0059         estimate D2E/DX2                !
 ! D1    D(6,1,2,3)              0.0001         estimate D2E/DX2                !
 ! D2    D(6,1,2,8)            180.0            estimate D2E/DX2                !
 ! D3    D(16,1,2,3)           179.9999         estimate D2E/DX2                !
 ! D4    D(16,1,2,8)            -0.0002         estimate D2E/DX2                !
 ! D5    D(2,1,6,5)             -0.0001         estimate D2E/DX2                !
 ! D6    D(2,1,6,10)           179.9999         estimate D2E/DX2                !
 ! D7    D(16,1,6,5)          -180.0            estimate D2E/DX2                !
 ! D8    D(16,1,6,10)            0.0001         estimate D2E/DX2                !
 ! D9    D(2,1,16,7)             0.0004         estimate D2E/DX2                !
 ! D10   D(2,1,16,17)          179.9998         estimate D2E/DX2                !
 ! D11   D(6,1,16,7)          -179.9997         estimate D2E/DX2                !
 ! D12   D(6,1,16,17)           -0.0004         estimate D2E/DX2                !
 ! D13   D(1,2,3,4)              0.0001         estimate D2E/DX2                !
 ! D14   D(1,2,3,9)            179.9999         estimate D2E/DX2                !
 ! D15   D(8,2,3,4)           -179.9998         estimate D2E/DX2                !
 ! D16   D(8,2,3,9)              0.0            estimate D2E/DX2                !
 ! D17   D(1,2,8,7)             -0.0001         estimate D2E/DX2                !
 ! D18   D(1,2,8,11)          -179.9999         estimate D2E/DX2                !
 ! D19   D(3,2,8,7)            179.9998         estimate D2E/DX2                !
 ! D20   D(3,2,8,11)             0.0            estimate D2E/DX2                !
 ! D21   D(2,3,4,5)             -0.0001         estimate D2E/DX2                !
 ! D22   D(2,3,4,12)           179.9999         estimate D2E/DX2                !
 ! D23   D(9,3,4,5)           -179.9999         estimate D2E/DX2                !
 ! D24   D(9,3,4,12)             0.0001         estimate D2E/DX2                !
 ! D25   D(3,4,5,6)              0.0            estimate D2E/DX2                !
 ! D26   D(3,4,5,14)          -180.0            estimate D2E/DX2                !
 ! D27   D(12,4,5,6)           180.0            estimate D2E/DX2                !
 ! D28   D(12,4,5,14)            0.0            estimate D2E/DX2                !
 ! D29   D(3,4,12,13)         -179.9996         estimate D2E/DX2                !
 ! D30   D(5,4,12,13)            0.0005         estimate D2E/DX2                !
 ! D31   D(4,5,6,1)              0.0001         estimate D2E/DX2                !
 ! D32   D(4,5,6,10)          -180.0            estimate D2E/DX2                !
 ! D33   D(14,5,6,1)          -179.9999         estimate D2E/DX2                !
 ! D34   D(14,5,6,10)            0.0            estimate D2E/DX2                !
 ! D35   D(4,5,14,15)         -179.9988         estimate D2E/DX2                !
 ! D36   D(6,5,14,15)            0.0012         estimate D2E/DX2                !
 ! D37   D(16,7,8,2)             0.0003         estimate D2E/DX2                !
 ! D38   D(16,7,8,11)         -179.9999         estimate D2E/DX2                !
 ! D39   D(18,7,8,2)          -179.9995         estimate D2E/DX2                !
 ! D40   D(18,7,8,11)            0.0003         estimate D2E/DX2                !
 ! D41   D(8,7,16,1)            -0.0005         estimate D2E/DX2                !
 ! D42   D(8,7,16,17)         -179.9999         estimate D2E/DX2                !
 ! D43   D(18,7,16,1)          179.9994         estimate D2E/DX2                !
 ! D44   D(18,7,16,17)           0.0            estimate D2E/DX2                !
 ! D45   D(8,7,18,19)         -179.9969         estimate D2E/DX2                !
 ! D46   D(8,7,18,20)           -0.0064         estimate D2E/DX2                !
 ! D47   D(16,7,18,19)           0.0032         estimate D2E/DX2                !
 ! D48   D(16,7,18,20)         179.9937         estimate D2E/DX2                !
 --------------------------------------------------------------------------------
 Trust Radius=3.00D-01 FncErr=5.00D-06 GrdErr=5.00D-06 EigMax=2.50D+02 EigMin=1.00D-04
 Number of steps in this run=    111 maximum allowed number of steps=    120.
 GradGradGradGradGradGradGradGradGradGradGradGradGradGradGradGradGradGrad

                          Input orientation:                          
 ---------------------------------------------------------------------
 Center     Atomic      Atomic             Coordinates (Angstroms)
 Number     Number       Type             X           Y           Z
 ---------------------------------------------------------------------
      1          6           0        0.097550    0.606835    0.000022
      2          6           0        0.131561   -0.807997   -0.000007
      3          6           0        1.377988   -1.464096   -0.000013
      4          6           0        2.527302   -0.707014    0.000011
      5          6           0        2.467606    0.707886    0.000039
      6          6           0        1.265192    1.382445    0.000044
      7          6           0       -2.024260   -0.132232    0.000000
      8          6           0       -1.230985   -1.252982   -0.000022
      9          1           0        1.451484   -2.546862   -0.000033
     10          1           0        1.232505    2.467602    0.000065
     11          1           0       -1.586018   -2.273125   -0.000043
     12          8           0        3.755371   -1.320397    0.000007
     13          1           0        4.441681   -0.636856    0.000033
     14          8           0        3.696827    1.321428    0.000060
     15          1           0        3.609623    2.283209    0.000098
     16          7           0       -1.219287    0.986530    0.000020
     17          1           0       -1.594720    1.923118    0.000040
     18          6           0       -3.517639    0.032420    0.000007
     19          8           0       -3.935275    1.223927   -0.000032
     20          8           0       -4.215105   -1.014256   -0.000134
 ---------------------------------------------------------------------
                    Distance matrix (angstroms):
                    1          2          3          4          5
     1  C    0.000000
     2  C    1.415241   0.000000
     3  C    2.434805   1.408562   0.000000
     4  C    2.762226   2.397868   1.376262   0.000000
     5  C    2.372209   2.784781   2.429974   1.416159   0.000000
     6  C    1.401770   2.466405   2.848775   2.441057   1.378706
     7  C    2.246842   2.259253   3.653649   4.587711   4.569755
     8  C    2.285591   1.433368   2.617501   3.797736   4.186237
     9  H    3.432046   2.183082   1.085258   2.131297   3.409676
    10  H    2.179582   3.455666   3.934389   3.428511   2.149901
    11  H    3.335951   2.257582   3.072435   4.401375   5.031729
    12  O    4.134474   3.659857   2.381722   1.372732   2.402555
    13  H    4.518655   4.313516   3.173412   1.915664   2.388578
    14  O    3.669528   4.152779   3.624384   2.341445   1.373833
    15  H    3.891643   4.653221   4.361478   3.180071   1.945725
    16  N    1.370485   2.246134   3.570911   4.111572   3.697408
    17  H    2.143917   3.230950   4.506685   4.889648   4.240198
    18  C    3.660539   3.744724   5.119250   6.089998   6.023239
    19  O    4.079765   4.546193   5.954514   6.744882   6.423643
    20  O    4.607269   4.351557   5.611154   6.749404   6.901043
                    6          7          8          9         10
     6  C    0.000000
     7  C    3.621428   0.000000
     8  C    3.629928   1.373086   0.000000
     9  H    3.933721   4.232167   2.978215   0.000000
    10  H    1.085649   4.167212   4.462234   5.019243   0.000000
    11  H    4.636010   2.185287   1.080157   3.049812   5.515303
    12  O    3.675098   5.900497   4.986812   2.610002   4.551240
    13  H    3.763995   6.485602   5.706028   3.548155   4.465027
    14  O    2.432400   5.902878   5.559759   4.472721   2.717830
    15  H    2.511520   6.129844   5.994675   5.290288   2.384259
    16  N    2.515827   1.378263   2.239543   4.429207   2.864412
    17  H    2.910571   2.099754   3.196860   5.409259   2.879178
    18  C    4.969712   1.502428   2.623175   5.598650   5.337975
    19  O    5.202882   2.343319   3.667187   6.575410   5.315325
    20  O    5.981457   2.361730   2.993654   5.870188   6.465276
                   11         12         13         14         15
    11  H    0.000000
    12  O    5.425691   0.000000
    13  H    6.245841   0.968633   0.000000
    14  O    6.389778   2.642474   2.095157   0.000000
    15  H    6.910489   3.606552   3.036297   0.965726   0.000000
    16  N    3.280220   5.483533   5.889138   4.927508   4.999975
    17  H    4.196252   6.256506   6.556798   5.325646   5.216786
    18  C    3.007773   7.397756   7.987409   7.328715   7.474217
    19  O    4.212883   8.100594   8.581137   7.632725   7.618895
    20  O    2.914936   7.976353   8.665009   8.249490   8.491151
                   16         17         18         19         20
    16  N    0.000000
    17  H    1.009033   0.000000
    18  C    2.488523   2.696731   0.000000
    19  O    2.726343   2.442758   1.262580   0.000000
    20  O    3.602509   3.936316   1.257772   2.255608   0.000000
 Symmetry turned off by external request.
 Stoichiometry    C9H6NO4(1-)
 Framework group  C1[X(C9H6NO4)]
 Deg. of freedom    54
 Full point group                 C1      NOp   1
 Rotational constants (GHZ):           2.2060900           0.3494425           0.3016599
 Standard basis: 6-31+G(d,p) (6D, 7F)
   296 basis functions,   490 primitive gaussians,   296 cartesian basis functions
    50 alpha electrons       50 beta electrons
       nuclear repulsion energy       825.0847007945 Hartrees.
 NAtoms=   20 NActive=   20 NUniq=   20 SFac= 1.00D+00 NAtFMM=   60 NAOKFM=F Big=F
 Integral buffers will be    131072 words long.
 Raffenetti 1 integral format.
 Two-electron integral symmetry is turned off.
 Force PCM accuracy= 1.00D-11.
 ------------------------------------------------------------------------------
 Polarizable Continuum Model (PCM)
 =================================
 Model                : PCM.
 Atomic radii         : UFF (Universal Force Field).
 Polarization charges : Total charges.
 Charge compensation  : None.
 Solution method      : On-the-fly selection.
 Cavity type          : Scaled VdW (van der Waals Surface) (Alpha=1.100).
 Cavity algorithm     : GePol (No added spheres)
                        Default sphere list used, NSphG=   20.
                        Lebedev-Laikov grids with approx.  5.0 points / Ang**2.
                        Smoothing algorithm: York/Karplus (Gamma=1.0000).
                        Polarization charges: spherical gaussians, with
                                              point-specific exponents (IZeta= 3).
                        Self-potential: point-specific (ISelfS= 7).
                        Self-field    : sphere-specific E.n sum rule (ISelfD= 2).
 1st derivatives      : Analytical E(r).r(x)/FMM algorithm (CHGder, D1EAlg=3).
                        Cavity 1st derivative terms included.
 Solvent              : Water, Eps=  78.355300 Eps(inf)=   1.777849
 ------------------------------------------------------------------------------
 Spheres list:
 ISph  on   Nord     Re0    Alpha      Xe            Ye            Ze
    1   C      1    1.9255  1.100      0.097550      0.606835      0.000022
    2   C      2    1.9255  1.100      0.131561     -0.807997     -0.000007
    3   C      3    1.9255  1.100      1.377988     -1.464096     -0.000013
    4   C      4    1.9255  1.100      2.527302     -0.707014      0.000011
    5   C      5    1.9255  1.100      2.467606      0.707886      0.000039
    6   C      6    1.9255  1.100      1.265192      1.382445      0.000044
    7   C      7    1.9255  1.100     -2.024260     -0.132232      0.000000
    8   C      8    1.9255  1.100     -1.230985     -1.252982     -0.000022
    9   H      9    1.4430  1.100      1.451484     -2.546862     -0.000033
   10   H     10    1.4430  1.100      1.232505      2.467602      0.000065
   11   H     11    1.4430  1.100     -1.586018     -2.273125     -0.000043
   12   O     12    1.7500  1.100      3.755371     -1.320397      0.000007
   13   H     13    1.4430  1.100      4.441681     -0.636856      0.000033
   14   O     14    1.7500  1.100      3.696827      1.321428      0.000060
   15   H     15    1.4430  1.100      3.609623      2.283209      0.000098
   16   N     16    1.8300  1.100     -1.219287      0.986530      0.000020
   17   H     17    1.4430  1.100     -1.594720      1.923118      0.000040
   18   C     18    1.9255  1.100     -3.517639      0.032420      0.000007
   19   O     19    1.7500  1.100     -3.935275      1.223927     -0.000032
   20   O     20    1.7500  1.100     -4.215105     -1.014256     -0.000134
 ------------------------------------------------------------------------------
 One-electron integrals computed using PRISM.
 NBasis=   296 RedAO= T EigKep=  1.46D-06  NBF=   296
 NBsUse=   295 1.00D-06 EigRej=  8.25D-07 NBFU=   295
 ExpMin= 4.38D-02 ExpMax= 5.48D+03 ExpMxC= 8.25D+02 IAcc=3 IRadAn=         5 AccDes= 0.00D+00
 Harris functional with IExCor=20419 and IRadAn=       5 diagonalized for initial guess.
 HarFok:  IExCor=20419 AccDes= 0.00D+00 IRadAn=         5 IDoV= 1 UseB2=F ITyADJ=14
 ICtDFT=  3500011 ScaDFX=  1.000000  1.000000  1.000000  1.000000
 FoFCou: FMM=F IPFlag=           0 FMFlag=      100000 FMFlg1=           0
         NFxFlg=           0 DoJE=T BraDBF=F KetDBF=T FulRan=T
         wScrn=  0.000000 ICntrl=       500 IOpCl=  0 I1Cent=   200000004 NGrid=           0
         NMat0=    1 NMatS0=      1 NMatT0=    0 NMatD0=    1 NMtDS0=    0 NMtDT0=    0
 Symmetry not used in FoFCou.
 Requested convergence on RMS density matrix=1.00D-08 within 128 cycles.
 Requested convergence on MAX density matrix=1.00D-06.
 Requested convergence on             energy=1.00D-06.
 No special actions if energy rises.
 Inv3:  Mode=1 IEnd=    10024752.
 Iteration    1 A*A^-1 deviation from unit magnitude is 7.33D-15 for    447.
 Iteration    1 A*A^-1 deviation from orthogonality  is 2.05D-15 for   1645   1396.
 Iteration    1 A^-1*A deviation from unit magnitude is 6.99D-15 for    703.
 Iteration    1 A^-1*A deviation from orthogonality  is 3.21D-15 for   1522   1159.
 Error on total polarization charges =  0.02337
 SCF Done:  E(RCAM-B3LYP) =  -702.136984817     A.U. after   16 cycles
            NFock= 16  Conv=0.42D-08     -V/T= 2.0089
 DoSCS=F DFT=T ScalE2(SS,OS)=  1.000000  1.000000
 ExpMin= 4.38D-02 ExpMax= 5.48D+03 ExpMxC= 8.25D+02 IAcc=3 IRadAn=         5 AccDes= 0.00D+00
 HarFok:  IExCor=  205 AccDes= 0.00D+00 IRadAn=         5 IDoV=-2 UseB2=F ITyADJ=14
 ICtDFT= 12500011 ScaDFX=  1.000000  1.000000  1.000000  1.000000
 Range of M.O.s used for correlation:    15   295
 NBasis=   296 NAE=    50 NBE=    50 NFC=    14 NFV=     0
 NROrb=    281 NOA=    36 NOB=    36 NVA=   245 NVB=   245

 **** Warning!!: The largest alpha MO coefficient is  0.21656443D+03

 Keep R1, R2, and R3 ints in memory in canonical form, NReq=5947637972.
 NEqPCM:  Using equilibrium solvation (IEInf=0, Eps=  78.3553, EpsInf=   1.7778)
    20 initial guesses have been made.
 Convergence on wavefunction:    0.000001000000000
 Iteration     1 Dimension    20 NMult     0 NNew     20
 CISAX will form    20 AO SS matrices at one time.
 Iteration     2 Dimension    30 NMult    20 NNew     10
 Iteration     3 Dimension    40 NMult    30 NNew     10
 Iteration     4 Dimension    50 NMult    40 NNew     10
 Iteration     5 Dimension    60 NMult    50 NNew     10
 Iteration     6 Dimension    70 NMult    60 NNew     10
 No map to state      5
 Iteration     7 Dimension    80 NMult    70 NNew     10
 New state      4 was old state      5
 New state      5 was old state      4
 Iteration     8 Dimension    90 NMult    80 NNew     10
 Iteration     9 Dimension   100 NMult    90 NNew     10
 Iteration    10 Dimension   110 NMult   100 NNew     10
 Iteration    11 Dimension   120 NMult   110 NNew     10
 Iteration    12 Dimension   130 NMult   120 NNew     10
 Iteration    13 Dimension   134 NMult   130 NNew      4
 Iteration    14 Dimension   138 NMult   134 NNew      4
 Iteration    15 Dimension   140 NMult   138 NNew      2
 Iteration    16 Dimension   142 NMult   140 NNew      2
 Iteration    17 Dimension   144 NMult   142 NNew      2
 ***********************************************************************
 Excited states from <AA,BB:AA,BB> singles matrix:
 ***********************************************************************
 
 Ground to excited state transition densities written to RWF  633
 Ground to excited state transition electric dipole moments (Au):
       state          X           Y           Z        Dip. S.      Osc.
         1         2.3969      0.0976      0.0000      5.7545      0.6238
         2        -0.6497      1.1437      0.0000      1.7301      0.1957
         3         0.0000     -0.0000      0.0610      0.0037      0.0005
         4         0.0000     -0.0000     -0.0111      0.0001      0.0000
         5         0.0001      0.0001     -0.2035      0.0414      0.0054
 Ground to excited state transition velocity dipole moments (Au):
       state          X           Y           Z        Dip. S.      Osc.
         1        -0.3803     -0.0148     -0.0000      0.1449      0.5939
         2         0.1032     -0.1958     -0.0000      0.0490      0.1925
         3        -0.0000      0.0000      0.0041      0.0000      0.0001
         4        -0.0000      0.0000      0.0035      0.0000      0.0000
         5        -0.0000     -0.0000      0.0401      0.0016      0.0055
 Ground to excited state transition magnetic dipole moments (Au):
       state          X           Y           Z
         1         0.0000     -0.0000     -0.2572
         2         0.0000      0.0000     -0.2435
         3         0.0845     -0.4401     -0.0000
         4        -0.4149      0.0009     -0.0001
         5        -0.0012     -0.0177     -0.0001
 Ground to excited state transition velocity quadrupole moments (Au):
       state          XX          YY          ZZ          XY          XZ          YZ
         1         0.0374     -0.1144      0.0355     -0.1303      0.0000     -0.0000
         2        -0.6758      0.1774      0.0160     -0.1024     -0.0000      0.0000
         3        -0.0000     -0.0000      0.0000     -0.0000      0.2234      0.0319
         4        -0.0000     -0.0000      0.0000      0.0000     -0.0140     -0.0458
         5         0.0001     -0.0000      0.0000     -0.0000      0.0042      0.0218
 <0|del|b> * <b|rxdel|0> + <0|del|b> * <b|delr+rdel|0>
 Rotatory Strengths (R) in cgs (10**-40 erg-esu-cm/Gauss)
       state          XX          YY          ZZ    R(velocity)    E-M Angle
         1         0.0030      0.0043     -0.0042      0.0010       90.00
         2        -0.0046      0.0054      0.0021      0.0010       90.00
         3        -0.0038     -0.0004     -0.0014     -0.0019       90.00
         4        -0.0002      0.0010      0.0013      0.0007       90.00
         5        -0.0058     -0.0016      0.0008     -0.0022       90.00
 1/2[<0|r|b>*<b|rxdel|0> + (<0|rxdel|b>*<b|r|0>)*]
 Rotatory Strengths (R) in cgs (10**-40 erg-esu-cm/Gauss)
       state          XX          YY          ZZ     R(length)
         1        -0.0011      0.0007      0.0033      0.0010
         2         0.0071     -0.0079      0.0043      0.0012
         3        -0.0005     -0.0054      0.0002     -0.0019
         4         0.0025      0.0000     -0.0007      0.0006
         5         0.0001      0.0007     -0.0073     -0.0022
  1/2[<0|del|b>*<b|r|0> + (<0|r|b>*<b|del|0>)*] (Au)
       state          X           Y           Z        Dip. S.   Osc.(frdel)
         1        -0.9116     -0.0014     -0.0000      0.9130      0.6087
         2        -0.0670     -0.2240     -0.0000      0.2910      0.1940
         3        -0.0000     -0.0000      0.0002     -0.0002     -0.0002
         4        -0.0000     -0.0000     -0.0000      0.0000      0.0000
         5        -0.0000     -0.0000     -0.0082      0.0082      0.0054

 Excitation energies and oscillator strengths:
 
 Excited state symmetry could not be determined.
 Excited State   1:      Singlet-?Sym    4.4246 eV  280.21 nm  f=0.6238  <S**2>=0.000
      49 -> 51         0.28381
      50 -> 51         0.62052
 This state for optimization and/or second-order correction.
 Total Energy, E(TD-HF/TD-DFT) =  -701.974382327    
 Copying the excited state density for this state as the 1-particle RhoCI density.
 
 Excited state symmetry could not be determined.
 Excited State   2:      Singlet-?Sym    4.6181 eV  268.47 nm  f=0.1957  <S**2>=0.000
      49 -> 51         0.61666
      50 -> 51        -0.30038
 
 Excited state symmetry could not be determined.
 Excited State   3:      Singlet-?Sym    5.0807 eV  244.03 nm  f=0.0005  <S**2>=0.000
      49 -> 52         0.24252
      50 -> 52         0.62151
      50 -> 58        -0.11207
 
 Excited state symmetry could not be determined.
 Excited State   4:      Singlet-?Sym    5.1692 eV  239.85 nm  f=0.0000  <S**2>=0.000
      48 -> 51         0.56836
      48 -> 55         0.33569
      48 -> 62         0.13015
 
 Excited state symmetry could not be determined.
 Excited State   5:      Singlet-?Sym    5.3252 eV  232.83 nm  f=0.0054  <S**2>=0.000
      49 -> 52         0.54741
      49 -> 53         0.14409
      49 -> 54        -0.11041
      49 -> 58        -0.13072
      50 -> 52        -0.19691
      50 -> 53        -0.25498
 SavETr:  write IOETrn=   770 NScale= 10 NData=  16 NLR=1 NState=    5 LETran=     100.
          IDoAtm=11111111111111111111
 NEqPCM:  Using equilibrium solvation (IEInf=0, Eps=  78.3553, EpsInf=   1.7778)
          Differentiating once with respect to electric field.
                with respect to dipole field.
          Differentiating once with respect to nuclear coordinates.
 Keep R1 ints in memory in canonical form, NReq=1963367003.
          There are     1 degrees of freedom in the 1st order CPHF.  IDoFFX=0 NUNeed=     1.
 LinEq1:  Iter=  0 NonCon=     1 RMS=3.49D-03 Max=1.31D-01 NDo=     1
 AX will form     1 AO Fock derivatives at one time.
 LinEq1:  Iter=  1 NonCon=     1 RMS=1.01D-03 Max=5.16D-02 NDo=     1
 LinEq1:  Iter=  2 NonCon=     1 RMS=4.95D-04 Max=1.01D-02 NDo=     1
 LinEq1:  Iter=  3 NonCon=     1 RMS=2.12D-04 Max=6.49D-03 NDo=     1
 LinEq1:  Iter=  4 NonCon=     1 RMS=9.70D-05 Max=5.18D-03 NDo=     1
 LinEq1:  Iter=  5 NonCon=     1 RMS=5.27D-05 Max=1.33D-03 NDo=     1
 LinEq1:  Iter=  6 NonCon=     1 RMS=2.02D-05 Max=9.19D-04 NDo=     1
 LinEq1:  Iter=  7 NonCon=     1 RMS=1.10D-05 Max=2.78D-04 NDo=     1
 LinEq1:  Iter=  8 NonCon=     1 RMS=5.61D-06 Max=1.98D-04 NDo=     1
 LinEq1:  Iter=  9 NonCon=     1 RMS=3.47D-06 Max=7.77D-05 NDo=     1
 LinEq1:  Iter= 10 NonCon=     1 RMS=1.85D-06 Max=4.76D-05 NDo=     1
 LinEq1:  Iter= 11 NonCon=     1 RMS=1.20D-06 Max=2.61D-05 NDo=     1
 LinEq1:  Iter= 12 NonCon=     1 RMS=4.28D-07 Max=1.48D-05 NDo=     1
 LinEq1:  Iter= 13 NonCon=     1 RMS=2.56D-07 Max=8.81D-06 NDo=     1
 LinEq1:  Iter= 14 NonCon=     1 RMS=9.35D-08 Max=3.60D-06 NDo=     1
 LinEq1:  Iter= 15 NonCon=     1 RMS=4.53D-08 Max=1.97D-06 NDo=     1
 LinEq1:  Iter= 16 NonCon=     1 RMS=2.12D-08 Max=6.40D-07 NDo=     1
 LinEq1:  Iter= 17 NonCon=     1 RMS=8.82D-09 Max=3.10D-07 NDo=     1
 LinEq1:  Iter= 18 NonCon=     1 RMS=3.15D-09 Max=8.47D-08 NDo=     1
 LinEq1:  Iter= 19 NonCon=     1 RMS=1.46D-09 Max=4.00D-08 NDo=     1
 LinEq1:  Iter= 20 NonCon=     1 RMS=5.80D-10 Max=1.71D-08 NDo=     1
 LinEq1:  Iter= 21 NonCon=     1 RMS=2.53D-10 Max=6.49D-09 NDo=     1
 LinEq1:  Iter= 22 NonCon=     1 RMS=1.20D-10 Max=3.72D-09 NDo=     1
 LinEq1:  Iter= 23 NonCon=     0 RMS=3.23D-11 Max=6.61D-10 NDo=     1
 Linear equations converged to 1.000D-10 1.000D-09 after    23 iterations.
 End of Minotr F.D. properties file   721 does not exist.
 End of Minotr F.D. properties file   722 does not exist.
 End of Minotr F.D. properties file   788 does not exist.

 **********************************************************************

            Population analysis using the SCF Density.

 **********************************************************************

 Alpha  occ. eigenvalues --  -19.27175 -19.25757 -19.16806 -19.16676 -14.44466
 Alpha  occ. eigenvalues --  -10.35329 -10.33200 -10.32294 -10.29695 -10.28584
 Alpha  occ. eigenvalues --  -10.27169 -10.26479 -10.26252 -10.24888  -1.16455
 Alpha  occ. eigenvalues --   -1.13239  -1.10820  -1.06010  -1.01422  -0.92836
 Alpha  occ. eigenvalues --   -0.86460  -0.82103  -0.80308  -0.73062  -0.68794
 Alpha  occ. eigenvalues --   -0.67022  -0.63682  -0.62103  -0.59858  -0.55864
 Alpha  occ. eigenvalues --   -0.54203  -0.51755  -0.51262  -0.50597  -0.49431
 Alpha  occ. eigenvalues --   -0.49106  -0.47793  -0.46313  -0.45364  -0.45356
 Alpha  occ. eigenvalues --   -0.44697  -0.44538  -0.40997  -0.36773  -0.33815
 Alpha  occ. eigenvalues --   -0.31408  -0.31339  -0.30129  -0.25946  -0.25194
 Alpha virt. eigenvalues --    0.01384   0.02802   0.04041   0.04762   0.05508
 Alpha virt. eigenvalues --    0.06220   0.06314   0.07543   0.07645   0.08743
 Alpha virt. eigenvalues --    0.09254   0.09370   0.09641   0.10537   0.10716
 Alpha virt. eigenvalues --    0.12162   0.12735   0.12755   0.14346   0.15364
 Alpha virt. eigenvalues --    0.15604   0.16471   0.16666   0.17920   0.18009
 Alpha virt. eigenvalues --    0.19265   0.19985   0.20098   0.20641   0.20749
 Alpha virt. eigenvalues --    0.21079   0.22274   0.22599   0.22723   0.23566
 Alpha virt. eigenvalues --    0.24431   0.24683   0.25335   0.25831   0.26034
 Alpha virt. eigenvalues --    0.26507   0.27331   0.27935   0.28363   0.28687
 Alpha virt. eigenvalues --    0.29615   0.29811   0.30193   0.30767   0.30958
 Alpha virt. eigenvalues --    0.31564   0.32679   0.33841   0.33985   0.34574
 Alpha virt. eigenvalues --    0.35115   0.35500   0.35700   0.35720   0.36903
 Alpha virt. eigenvalues --    0.37665   0.38012   0.38720   0.39972   0.40898
 Alpha virt. eigenvalues --    0.41477   0.42323   0.42748   0.44304   0.45992
 Alpha virt. eigenvalues --    0.47110   0.47593   0.50561   0.51407   0.52951
 Alpha virt. eigenvalues --    0.53685   0.55884   0.60890   0.63839   0.70794
 Alpha virt. eigenvalues --    0.70910   0.73783   0.76628   0.77018   0.77515
 Alpha virt. eigenvalues --    0.79322   0.79385   0.80631   0.80865   0.81105
 Alpha virt. eigenvalues --    0.85148   0.85163   0.87871   0.88022   0.90941
 Alpha virt. eigenvalues --    0.91851   0.92544   0.94750   0.95831   0.96663
 Alpha virt. eigenvalues --    0.99664   1.01056   1.04175   1.07784   1.09082
 Alpha virt. eigenvalues --    1.10206   1.11615   1.12534   1.13009   1.14771
 Alpha virt. eigenvalues --    1.16467   1.18753   1.20631   1.22402   1.22556
 Alpha virt. eigenvalues --    1.23190   1.25416   1.27380   1.27765   1.28368
 Alpha virt. eigenvalues --    1.29918   1.30790   1.32866   1.33592   1.33938
 Alpha virt. eigenvalues --    1.35360   1.37521   1.38746   1.39490   1.39749
 Alpha virt. eigenvalues --    1.41819   1.42683   1.43142   1.43425   1.45563
 Alpha virt. eigenvalues --    1.45774   1.46371   1.47078   1.48316   1.48502
 Alpha virt. eigenvalues --    1.49689   1.53288   1.55494   1.55997   1.61545
 Alpha virt. eigenvalues --    1.63209   1.65135   1.66539   1.68171   1.75410
 Alpha virt. eigenvalues --    1.79469   1.81247   1.83495   1.87685   1.88606
 Alpha virt. eigenvalues --    1.90431   1.91929   1.92799   1.93235   1.93727
 Alpha virt. eigenvalues --    1.94395   1.95514   1.95768   1.97933   1.99653
 Alpha virt. eigenvalues --    2.00454   2.01627   2.02834   2.06081   2.08838
 Alpha virt. eigenvalues --    2.10617   2.12495   2.15838   2.17855   2.19797
 Alpha virt. eigenvalues --    2.22388   2.23868   2.24577   2.28200   2.28439
 Alpha virt. eigenvalues --    2.29879   2.32264   2.32722   2.39078   2.43829
 Alpha virt. eigenvalues --    2.45636   2.45889   2.48313   2.51095   2.52696
 Alpha virt. eigenvalues --    2.53169   2.56244   2.56541   2.58691   2.59333
 Alpha virt. eigenvalues --    2.63986   2.64969   2.66416   2.70366   2.71542
 Alpha virt. eigenvalues --    2.72848   2.76043   2.78744   2.79358   2.79509
 Alpha virt. eigenvalues --    2.80994   2.82810   2.84194   2.85064   2.88868
 Alpha virt. eigenvalues --    2.90954   2.94229   2.97417   3.00740   3.07877
 Alpha virt. eigenvalues --    3.11187   3.12828   3.16046   3.17345   3.21337
 Alpha virt. eigenvalues --    3.21774   3.27127   3.28560   3.38339   3.45447
 Alpha virt. eigenvalues --    3.53070   3.57188   3.63252   3.67931   3.72158
 Alpha virt. eigenvalues --    3.85214   4.24933   4.30745   4.38088   4.41220
 Alpha virt. eigenvalues --    4.43615   4.45747   4.53059   4.60188   4.60896
 Alpha virt. eigenvalues --    4.64309   4.81267   4.83191   4.90314   5.11763
          Condensed to atoms (all electrons):
               1          2          3          4          5          6
     1  C   10.696000   0.412459  -2.664960   0.437771  -0.619040   0.070690
     2  C    0.412459  13.246909  -5.393152  -0.297453  -0.461184  -0.370865
     3  C   -2.664960  -5.393152  15.474271   0.274649  -1.159343  -0.026352
     4  C    0.437771  -0.297453   0.274649   9.791341  -2.425097  -1.065218
     5  C   -0.619040  -0.461184  -1.159343  -2.425097   8.750128   1.285292
     6  C    0.070690  -0.370865  -0.026352  -1.065218   1.285292   8.213559
     7  C    1.112390   0.991418  -2.561000  -0.165018  -0.068281  -0.064843
     8  C   -3.047156  -2.294609   2.978772  -0.531721   0.222858  -1.201205
     9  H    0.025410   0.042327   0.223525   0.024559   0.022523  -0.018497
    10  H    0.042823   0.036365  -0.018496   0.023110  -0.039192   0.286643
    11  H    0.094005  -0.039390  -0.007937   0.001433   0.001657   0.001103
    12  O   -0.038472  -0.011848  -0.419387   0.154424   0.156008   0.050913
    13  H    0.002524  -0.000232   0.146144   0.093385  -0.205799  -0.046234
    14  O    0.028574  -0.008238   0.050061  -0.447719   0.200906   0.077831
    15  H    0.023663   0.011571  -0.014215   0.088710  -0.035078  -0.073998
    16  N   -0.186546   0.257820   0.120607  -0.038188   0.045996  -0.031545
    17  H   -0.114405   0.130571   0.037283  -0.004285  -0.003874  -0.071679
    18  C    0.293002  -1.241324  -0.533427  -0.058543   0.040008  -0.162145
    19  O    0.001775   0.003363   0.007952  -0.000158   0.000644  -0.017792
    20  O    0.008086   0.046511  -0.006780   0.000566   0.000277  -0.002831
               7          8          9         10         11         12
     1  C    1.112390  -3.047156   0.025410   0.042823   0.094005  -0.038472
     2  C    0.991418  -2.294609   0.042327   0.036365  -0.039390  -0.011848
     3  C   -2.561000   2.978772   0.223525  -0.018496  -0.007937  -0.419387
     4  C   -0.165018  -0.531721   0.024559   0.023110   0.001433   0.154424
     5  C   -0.068281   0.222858   0.022523  -0.039192   0.001657   0.156008
     6  C   -0.064843  -1.201205  -0.018497   0.286643   0.001103   0.050913
     7  C   11.874037  -1.665787   0.000024  -0.006645  -0.052139   0.002928
     8  C   -1.665787  10.650242  -0.004439   0.007080   0.331430   0.000592
     9  H    0.000024  -0.004439   0.534207   0.000013   0.001153  -0.003432
    10  H   -0.006645   0.007080   0.000013   0.527165   0.000001  -0.000647
    11  H   -0.052139   0.331430   0.001153   0.000001   0.529960  -0.000008
    12  O    0.002928   0.000592  -0.003432  -0.000647  -0.000008   8.502932
    13  H    0.001110   0.002289  -0.000035  -0.000014   0.000000   0.216085
    14  O    0.003807   0.000991  -0.000495  -0.010006   0.000002  -0.010419
    15  H    0.001224  -0.000216   0.000004   0.004521   0.000000   0.001355
    16  N    0.220341  -0.319517  -0.000749  -0.012930   0.008260   0.000993
    17  H   -0.044262   0.095358   0.000002   0.001314  -0.000090   0.000002
    18  C   -2.576356   0.153599  -0.000212   0.000720  -0.018718   0.000868
    19  O   -0.330135   0.085790   0.000001   0.000001  -0.000632   0.000002
    20  O   -0.268384   0.021831   0.000005  -0.000001   0.000653   0.000001
              13         14         15         16         17         18
     1  C    0.002524   0.028574   0.023663  -0.186546  -0.114405   0.293002
     2  C   -0.000232  -0.008238   0.011571   0.257820   0.130571  -1.241324
     3  C    0.146144   0.050061  -0.014215   0.120607   0.037283  -0.533427
     4  C    0.093385  -0.447719   0.088710  -0.038188  -0.004285  -0.058543
     5  C   -0.205799   0.200906  -0.035078   0.045996  -0.003874   0.040008
     6  C   -0.046234   0.077831  -0.073998  -0.031545  -0.071679  -0.162145
     7  C    0.001110   0.003807   0.001224   0.220341  -0.044262  -2.576356
     8  C    0.002289   0.000991  -0.000216  -0.319517   0.095358   0.153599
     9  H   -0.000035  -0.000495   0.000004  -0.000749   0.000002  -0.000212
    10  H   -0.000014  -0.010006   0.004521  -0.012930   0.001314   0.000720
    11  H    0.000000   0.000002   0.000000   0.008260  -0.000090  -0.018718
    12  O    0.216085  -0.010419   0.001355   0.000993   0.000002   0.000868
    13  H    0.359136   0.026602  -0.000370  -0.000026   0.000000   0.000049
    14  O    0.026602   8.502229   0.238476  -0.001459  -0.000015   0.000473
    15  H   -0.000370   0.238476   0.340379  -0.000073   0.000001   0.000038
    16  N   -0.000026  -0.001459  -0.000073   7.198072   0.327702  -0.191444
    17  H    0.000000  -0.000015   0.000001   0.327702   0.374840  -0.070678
    18  C    0.000049   0.000473   0.000038  -0.191444  -0.070678   8.585399
    19  O   -0.000000   0.000001  -0.000000  -0.007963   0.012567   0.431299
    20  O    0.000000   0.000001   0.000000   0.008712   0.000343   0.367789
              19         20
     1  C    0.001775   0.008086
     2  C    0.003363   0.046511
     3  C    0.007952  -0.006780
     4  C   -0.000158   0.000566
     5  C    0.000644   0.000277
     6  C   -0.017792  -0.002831
     7  C   -0.330135  -0.268384
     8  C    0.085790   0.021831
     9  H    0.000001   0.000005
    10  H    0.000001  -0.000001
    11  H   -0.000632   0.000653
    12  O    0.000002   0.000001
    13  H   -0.000000   0.000000
    14  O    0.000001   0.000001
    15  H   -0.000000   0.000000
    16  N   -0.007963   0.008712
    17  H    0.012567   0.000343
    18  C    0.431299   0.367789
    19  O    8.749023  -0.192717
    20  O   -0.192717   8.772972
 Mulliken charges:
               1
     1  C   -0.578594
     2  C    0.938982
     3  C   -0.508217
     4  C    0.143450
     5  C    0.290590
     6  C   -0.832829
     7  C   -0.404430
     8  C    0.513819
     9  H    0.154104
    10  H    0.158171
    11  H    0.149259
    12  O   -0.602889
    13  H    0.405386
    14  O   -0.651604
    15  H    0.414009
    16  N   -0.398064
    17  H    0.329304
    18  C    0.979605
    19  O   -0.743021
    20  O   -0.757032
 Sum of Mulliken charges =  -1.00000
 Mulliken charges with hydrogens summed into heavy atoms:
               1
     1  C   -0.578594
     2  C    0.938982
     3  C   -0.354113
     4  C    0.143450
     5  C    0.290590
     6  C   -0.674658
     7  C   -0.404430
     8  C    0.663078
    12  O   -0.197503
    14  O   -0.237595
    16  N   -0.068759
    18  C    0.979605
    19  O   -0.743021
    20  O   -0.757032
 Electronic spatial extent (au):  <R**2>=           3364.4941
 Charge=             -1.0000 electrons
 Dipole moment (field-independent basis, Debye):
    X=             18.8801    Y=              4.8281    Z=              0.0007  Tot=             19.4877
 Quadrupole moment (field-independent basis, Debye-Ang):
   XX=           -171.1059   YY=            -79.7619   ZZ=            -86.2737
   XY=             11.2915   XZ=             -0.0019   YZ=              0.0002
 Traceless Quadrupole moment (field-independent basis, Debye-Ang):
   XX=            -58.7254   YY=             32.6186   ZZ=             26.1068
   XY=             11.2915   XZ=             -0.0019   YZ=              0.0002
 Octapole moment (field-independent basis, Debye-Ang**2):
  XXX=            420.2332  YYY=             37.5009  ZZZ=              0.0001  XYY=             51.9317
  XXY=             45.2387  XXZ=              0.0122  XZZ=              3.5153  YZZ=              3.7108
  YYZ=              0.0016  XYZ=              0.0025
 Hexadecapole moment (field-independent basis, Debye-Ang**3):
 XXXX=          -5259.6175 YYYY=           -590.6605 ZZZZ=            -98.5008 XXXY=            122.9984
 XXXZ=             -0.0580 YYYX=            104.1417 YYYZ=             -0.0028 ZZZX=             -0.0213
 ZZZY=             -0.0075 XXYY=           -842.7592 XXZZ=           -636.3636 YYZZ=           -142.5825
 XXYZ=             -0.0055 YYXZ=             -0.0058 ZZXY=              0.1395
 N-N= 8.250847007945D+02 E-N=-3.304968593681D+03  KE= 6.959506299603D+02
 D1PCM: PCM CHGder 1st derivatives, ID1Alg=3 FixD1E=F DoIter=F DoCFld=F I1PDM=6.
 Calling FoFJK, ICntrl=  10005127 FMM=F ISym2X=0 I1Cent= 0 IOpClX= 0 NMat=1 NMatS=1 NMatT=0.
 -------------------------------------------------------------------
 Center     Atomic                   Forces (Hartrees/Bohr)
 Number     Number              X              Y              Z
 -------------------------------------------------------------------
      1        6          -0.009344097    0.031666765    0.000000202
      2        6          -0.025609607   -0.032211705   -0.000000945
      3        6          -0.004075719   -0.033377740   -0.000000507
      4        6           0.024304506    0.006890762    0.000000136
      5        6           0.033600580   -0.012053644   -0.000000015
      6        6          -0.024111283    0.031133833    0.000000859
      7        6          -0.038381053    0.008272083    0.000006775
      8        6           0.034013572   -0.012622699   -0.000000287
      9        1          -0.000546764    0.001330892   -0.000000037
     10        1          -0.000726005   -0.001182040   -0.000000012
     11        1           0.000804716    0.000417183    0.000000140
     12        8          -0.013815669    0.003419404    0.000000023
     13        1           0.001483734    0.000972870   -0.000000024
     14        8          -0.011410447   -0.004029523   -0.000000253
     15        1          -0.000243708    0.002090449    0.000000011
     16        7           0.021501969    0.009536809    0.000000751
     17        1           0.000333238    0.000391087   -0.000000097
     18        6           0.022147737   -0.002244440   -0.000022414
     19        8          -0.003817161    0.010638125    0.000008084
     20        8          -0.006108539   -0.009038470    0.000007611
 -------------------------------------------------------------------
 Cartesian Forces:  Max     0.038381053 RMS     0.014078600

 GradGradGradGradGradGradGradGradGradGradGradGradGradGradGradGradGradGrad
 Berny optimization.
 FormGI is forming the generalized inverse of G from B-inverse, IUseBI=4.
 Internal  Forces:  Max     0.037317927 RMS     0.007387008
 Search for a local minimum.
 Step number   1 out of a maximum of  111
 All quantities printed in internal units (Hartrees-Bohrs-Radians)
 Mixed Optimization -- RFO/linear search
 Second derivative matrix not updated -- first step.
 ITU=  0
     Eigenvalues ---    0.00734   0.00734   0.01654   0.01841   0.01941
     Eigenvalues ---    0.01983   0.02027   0.02037   0.02038   0.02052
     Eigenvalues ---    0.02059   0.02095   0.02133   0.02188   0.02197
     Eigenvalues ---    0.02227   0.02268   0.16000   0.16000   0.16000
     Eigenvalues ---    0.16000   0.16000   0.16000   0.23055   0.23502
     Eigenvalues ---    0.23843   0.24317   0.25000   0.25000   0.25000
     Eigenvalues ---    0.25000   0.25000   0.25000   0.32124   0.35320
     Eigenvalues ---    0.35366   0.35975   0.37407   0.38499   0.41975
     Eigenvalues ---    0.42328   0.44538   0.46135   0.46939   0.47491
     Eigenvalues ---    0.48096   0.49078   0.50247   0.50455   0.50490
     Eigenvalues ---    0.53657   0.54260   0.78757   0.80430
 RFO step:  Lambda=-1.23425991D-02 EMin= 7.33824354D-03
 Linear search not attempted -- first point.
 Iteration  1 RMS(Cart)=  0.02195511 RMS(Int)=  0.00015972
 Iteration  2 RMS(Cart)=  0.00030290 RMS(Int)=  0.00003138
 Iteration  3 RMS(Cart)=  0.00000004 RMS(Int)=  0.00003138
 Variable       Old X    -DE/DX   Delta X   Delta X   Delta X     New X
                                 (Linear)    (Quad)   (Total)
    R1        2.67442   0.03732   0.00000   0.08329   0.08333   2.75775
    R2        2.64896   0.00073   0.00000   0.00146   0.00147   2.65043
    R3        2.58984  -0.01230   0.00000  -0.02402  -0.02402   2.56582
    R4        2.66180   0.01285   0.00000   0.02850   0.02856   2.69036
    R5        2.70867  -0.01931   0.00000  -0.04626  -0.04627   2.66240
    R6        2.60076   0.02187   0.00000   0.04297   0.04295   2.64371
    R7        2.05084  -0.00137   0.00000  -0.00373  -0.00373   2.04711
    R8        2.67615   0.00885   0.00000   0.01986   0.01980   2.69595
    R9        2.59409  -0.01300   0.00000  -0.02514  -0.02514   2.56895
   R10        2.60538   0.02953   0.00000   0.05818   0.05812   2.66350
   R11        2.59617  -0.01129   0.00000  -0.02194  -0.02194   2.57423
   R12        2.05158  -0.00116   0.00000  -0.00317  -0.00317   2.04841
   R13        2.59476   0.02514   0.00000   0.04943   0.04945   2.64421
   R14        2.60454   0.01473   0.00000   0.02953   0.02955   2.63409
   R15        2.83918  -0.01222   0.00000  -0.03663  -0.03663   2.80255
   R16        2.04120  -0.00066   0.00000  -0.00177  -0.00177   2.03943
   R17        1.83045   0.00174   0.00000   0.00317   0.00317   1.83362
   R18        1.82496   0.00210   0.00000   0.00379   0.00379   1.82875
   R19        1.90680   0.00024   0.00000   0.00050   0.00050   1.90730
   R20        2.38593   0.01130   0.00000   0.01413   0.01413   2.40006
   R21        2.37684   0.01091   0.00000   0.01336   0.01336   2.39020
    A1        2.13309   0.00430   0.00000   0.01851   0.01859   2.15168
    A2        1.87555   0.00092   0.00000   0.00090   0.00085   1.87641
    A3        2.27454  -0.00522   0.00000  -0.01940  -0.01944   2.25510
    A4        2.07936   0.00246   0.00000   0.01176   0.01189   2.09126
    A5        1.86243  -0.00058   0.00000  -0.00438  -0.00446   1.85797
    A6        2.34140  -0.00188   0.00000  -0.00738  -0.00744   2.33396
    A7        2.07458  -0.00921   0.00000  -0.03768  -0.03763   2.03694
    A8        2.12310   0.00414   0.00000   0.01613   0.01611   2.13921
    A9        2.08551   0.00507   0.00000   0.02155   0.02152   2.10703
   A10        2.11111   0.00581   0.00000   0.02327   0.02319   2.13431
   A11        2.09589  -0.00528   0.00000  -0.02069  -0.02065   2.07523
   A12        2.07619  -0.00053   0.00000  -0.00258  -0.00254   2.07364
   A13        2.12421   0.00494   0.00000   0.01934   0.01922   2.14343
   A14        1.99158   0.00208   0.00000   0.00769   0.00776   1.99934
   A15        2.16739  -0.00703   0.00000  -0.02703  -0.02697   2.14042
   A16        2.04401  -0.00830   0.00000  -0.03521  -0.03526   2.00875
   A17        2.12701   0.00337   0.00000   0.01307   0.01309   2.14011
   A18        2.11216   0.00493   0.00000   0.02214   0.02216   2.13432
   A19        1.90194  -0.00250   0.00000  -0.00739  -0.00733   1.89461
   A20        2.29655   0.00222   0.00000   0.00740   0.00737   2.30393
   A21        2.08469   0.00028   0.00000  -0.00001  -0.00004   2.08465
   A22        1.87108   0.00191   0.00000   0.00979   0.00982   1.88090
   A23        2.22137  -0.00159   0.00000  -0.00859  -0.00860   2.21277
   A24        2.19073  -0.00032   0.00000  -0.00120  -0.00122   2.18952
   A25        1.89499   0.00065   0.00000   0.00379   0.00379   1.89879
   A26        1.94333  -0.00010   0.00000  -0.00057  -0.00057   1.94275
   A27        1.91378   0.00024   0.00000   0.00109   0.00112   1.91490
   A28        2.23276  -0.00055   0.00000  -0.00306  -0.00307   2.22969
   A29        2.13664   0.00031   0.00000   0.00197   0.00195   2.13860
   A30        2.01774   0.00008   0.00000   0.00029   0.00029   2.01803
   A31        2.04878   0.00005   0.00000   0.00017   0.00017   2.04895
   A32        2.21667  -0.00012   0.00000  -0.00047  -0.00047   2.21620
    D1        0.00000  -0.00000   0.00000  -0.00000  -0.00000  -0.00000
    D2        3.14159  -0.00000   0.00000  -0.00000  -0.00000   3.14159
    D3        3.14159  -0.00000   0.00000  -0.00000  -0.00000   3.14159
    D4       -0.00000  -0.00000   0.00000  -0.00000  -0.00000  -0.00000
    D5       -0.00000   0.00000   0.00000   0.00000   0.00000   0.00000
    D6        3.14159   0.00000   0.00000   0.00000   0.00000   3.14159
    D7       -3.14159   0.00000   0.00000   0.00000   0.00000  -3.14159
    D8        0.00000  -0.00000   0.00000  -0.00000  -0.00000   0.00000
    D9        0.00001  -0.00000   0.00000  -0.00000  -0.00000   0.00001
   D10        3.14159   0.00000   0.00000   0.00000   0.00000   3.14159
   D11       -3.14159  -0.00000   0.00000  -0.00000  -0.00000  -3.14159
   D12       -0.00001   0.00000   0.00000   0.00000   0.00000  -0.00000
   D13        0.00000  -0.00000   0.00000  -0.00000  -0.00000  -0.00000
   D14        3.14159   0.00000   0.00000   0.00000   0.00000   3.14159
   D15       -3.14159  -0.00000   0.00000  -0.00000  -0.00000  -3.14159
   D16        0.00000   0.00000   0.00000   0.00000   0.00000   0.00000
   D17       -0.00000   0.00000   0.00000   0.00000   0.00000   0.00000
   D18       -3.14159   0.00000   0.00000   0.00000   0.00000  -3.14159
   D19        3.14159   0.00000   0.00000   0.00000   0.00000   3.14159
   D20       -0.00000   0.00000   0.00000   0.00000   0.00000   0.00000
   D21       -0.00000   0.00000   0.00000   0.00000   0.00000   0.00000
   D22        3.14159   0.00000   0.00000   0.00000   0.00000  -3.14159
   D23       -3.14159  -0.00000   0.00000  -0.00000  -0.00000  -3.14159
   D24        0.00000  -0.00000   0.00000  -0.00000  -0.00000   0.00000
   D25        0.00000   0.00000   0.00000   0.00000   0.00000   0.00000
   D26       -3.14159   0.00000   0.00000   0.00000   0.00000  -3.14159
   D27        3.14159   0.00000   0.00000   0.00000   0.00000  -3.14159
   D28       -0.00000   0.00000   0.00000   0.00000   0.00000   0.00000
   D29       -3.14159  -0.00000   0.00000  -0.00000  -0.00000  -3.14159
   D30        0.00001  -0.00000   0.00000  -0.00000  -0.00000   0.00001
   D31        0.00000  -0.00000   0.00000  -0.00000  -0.00000  -0.00000
   D32       -3.14159   0.00000   0.00000   0.00000   0.00000  -3.14159
   D33       -3.14159  -0.00000   0.00000  -0.00000  -0.00000   3.14159
   D34        0.00000  -0.00000   0.00000  -0.00000  -0.00000  -0.00000
   D35       -3.14157  -0.00000   0.00000  -0.00000  -0.00000  -3.14157
   D36        0.00002  -0.00000   0.00000  -0.00000  -0.00000   0.00002
   D37        0.00001  -0.00000   0.00000  -0.00000  -0.00000   0.00000
   D38       -3.14159  -0.00000   0.00000  -0.00000  -0.00000  -3.14159
   D39       -3.14158  -0.00000   0.00000  -0.00000  -0.00000  -3.14159
   D40        0.00000  -0.00000   0.00000  -0.00000  -0.00000   0.00000
   D41       -0.00001   0.00000   0.00000   0.00000   0.00000  -0.00000
   D42       -3.14159  -0.00000   0.00000  -0.00000  -0.00000  -3.14159
   D43        3.14158   0.00000   0.00000   0.00000   0.00000   3.14159
   D44        0.00000   0.00000   0.00000   0.00000   0.00000   0.00000
   D45       -3.14154  -0.00001   0.00000  -0.00046  -0.00046   3.14119
   D46       -0.00011   0.00001   0.00000   0.00047   0.00047   0.00036
   D47        0.00006  -0.00001   0.00000  -0.00046  -0.00046  -0.00041
   D48        3.14148   0.00001   0.00000   0.00047   0.00047  -3.14123
         Item               Value     Threshold  Converged?
 Maximum Force            0.037318     0.000450     NO 
 RMS     Force            0.007387     0.000300     NO 
 Maximum Displacement     0.097646     0.001800     NO 
 RMS     Displacement     0.022073     0.001200     NO 
 Predicted change in Energy=-6.354464D-03
 GradGradGradGradGradGradGradGradGradGradGradGradGradGradGradGradGradGrad

                          Input orientation:                          
 ---------------------------------------------------------------------
 Center     Atomic      Atomic             Coordinates (Angstroms)
 Number     Number       Type             X           Y           Z
 ---------------------------------------------------------------------
      1          6           0        0.094425    0.622842   -0.000038
      2          6           0        0.127658   -0.836115   -0.000059
      3          6           0        1.378626   -1.515768   -0.000020
      4          6           0        2.527736   -0.717818    0.000037
      5          6           0        2.465769    0.707469    0.000057
      6          6           0        1.249094    1.419006    0.000022
      7          6           0       -2.027160   -0.127049   -0.000133
      8          6           0       -1.214092   -1.265834   -0.000118
      9          1           0        1.455182   -2.596344   -0.000032
     10          1           0        1.211875    2.502337    0.000037
     11          1           0       -1.565877   -2.286111   -0.000146
     12          8           0        3.746217   -1.320601    0.000075
     13          1           0        4.433695   -0.635857    0.000118
     14          8           0        3.679054    1.326819    0.000112
     15          1           0        3.582407    2.289714    0.000141
     16          7           0       -1.209399    1.001769   -0.000087
     17          1           0       -1.580068    1.940540   -0.000086
     18          6           0       -3.500731    0.040303   -0.000184
     19          8           0       -3.917268    1.240112    0.000282
     20          8           0       -4.205741   -1.009832    0.000183
 ---------------------------------------------------------------------
                    Distance matrix (angstroms):
                    1          2          3          4          5
     1  C    0.000000
     2  C    1.459336   0.000000
     3  C    2.494559   1.423675   0.000000
     4  C    2.778196   2.402992   1.398992   0.000000
     5  C    2.372853   2.801681   2.474806   1.426634   0.000000
     6  C    1.402547   2.518570   2.937631   2.490169   1.409461
     7  C    2.250213   2.268482   3.678032   4.593047   4.569773
     8  C    2.297676   1.408882   2.604736   3.781745   4.175560
     9  H    3.494970   2.204705   1.083284   2.163153   3.454919
    10  H    2.186595   3.510099   4.021564   3.478634   2.189475
    11  H    3.349420   2.229473   3.043605   4.383744   5.021523
    12  O    4.136733   3.650849   2.375622   1.359428   2.398462
    13  H    4.518140   4.310691   3.179259   1.907720   2.382700
    14  O    3.653102   4.158209   3.656812   2.346503   1.362225
    15  H    3.865810   4.658981   4.397539   3.187097   1.936590
    16  N    1.357771   2.272782   3.610522   4.113777   3.686933
    17  H    2.130787   3.259776   4.549718   4.892946   4.229569
    18  C    3.642046   3.732736   5.121473   6.075950   6.003685
    19  O    4.058904   4.546663   5.970039   6.735842   6.405222
    20  O    4.599679   4.336879   5.607239   6.739806   6.888989
                    6          7          8          9         10
     6  C    0.000000
     7  C    3.622724   0.000000
     8  C    3.643577   1.399254   0.000000
     9  H    4.020635   4.268971   2.982495   0.000000
    10  H    1.083971   4.171932   4.481565   5.104483   0.000000
    11  H    4.653167   2.207788   1.079221   3.036946   5.535806
    12  O    3.706895   5.895460   4.960611   2.622282   4.586693
    13  H    3.790005   6.480858   5.682813   3.565816   4.497598
    14  O    2.431708   5.888515   5.537574   4.509636   2.732914
    15  H    2.490478   6.108027   5.970622   5.329039   2.380049
    16  N    2.493647   1.393902   2.267608   4.477321   2.848556
    17  H    2.876831   2.115376   3.227193   5.458576   2.847904
    18  C    4.945874   1.483044   2.633385   5.613642   5.316979
    19  O    5.169459   2.332732   3.686045   6.601637   5.282170
    20  O    5.971137   2.350643   3.002583   5.879036   6.456461
                   11         12         13         14         15
    11  H    0.000000
    12  O    5.399126   0.000000
    13  H    6.222395   0.970309   0.000000
    14  O    6.368876   2.648273   2.102756   0.000000
    15  H    6.887889   3.614030   3.046910   0.967733   0.000000
    16  N    3.307149   5.472800   5.875911   4.899248   4.961876
    17  H    4.226675   6.245346   6.542412   5.294810   5.174270
    18  C    3.025866   7.373624   7.963185   7.294138   7.431736
    19  O    4.238312   8.079991   8.559079   7.596817   7.572767
    20  O    2.932195   7.958029   8.647526   8.223742   8.458266
                   16         17         18         19         20
    16  N    0.000000
    17  H    1.009300   0.000000
    18  C    2.484878   2.701823   0.000000
    19  O    2.718338   2.439898   1.270057   0.000000
    20  O    3.608961   3.949538   1.264841   2.268361   0.000000
 Symmetry turned off by external request.
 Stoichiometry    C9H6NO4(1-)
 Framework group  C1[X(C9H6NO4)]
 Deg. of freedom    54
 Full point group                 C1      NOp   1
 Rotational constants (GHZ):           2.1485161           0.3518197           0.3023155
 Standard basis: 6-31+G(d,p) (6D, 7F)
   296 basis functions,   490 primitive gaussians,   296 cartesian basis functions
    50 alpha electrons       50 beta electrons
       nuclear repulsion energy       822.9277885706 Hartrees.
 NAtoms=   20 NActive=   20 NUniq=   20 SFac= 1.00D+00 NAtFMM=   60 NAOKFM=F Big=F
 Integral buffers will be    131072 words long.
 Raffenetti 1 integral format.
 Two-electron integral symmetry is turned off.
 Force PCM accuracy= 1.00D-11.
 ------------------------------------------------------------------------------
 Polarizable Continuum Model (PCM)
 =================================
 Model                : PCM.
 Atomic radii         : UFF (Universal Force Field).
 Polarization charges : Total charges.
 Charge compensation  : None.
 Solution method      : On-the-fly selection.
 Cavity type          : Scaled VdW (van der Waals Surface) (Alpha=1.100).
 Cavity algorithm     : GePol (No added spheres)
                        Default sphere list used, NSphG=   20.
                        Lebedev-Laikov grids with approx.  5.0 points / Ang**2.
                        Smoothing algorithm: York/Karplus (Gamma=1.0000).
                        Polarization charges: spherical gaussians, with
                                              point-specific exponents (IZeta= 3).
                        Self-potential: point-specific (ISelfS= 7).
                        Self-field    : sphere-specific E.n sum rule (ISelfD= 2).
 1st derivatives      : Analytical E(r).r(x)/FMM algorithm (CHGder, D1EAlg=3).
                        Cavity 1st derivative terms included.
 Solvent              : Water, Eps=  78.355300 Eps(inf)=   1.777849
 ------------------------------------------------------------------------------
 Spheres list:
 ISph  on   Nord     Re0    Alpha      Xe            Ye            Ze
    1   C      1    1.9255  1.100      0.094425      0.622842     -0.000038
    2   C      2    1.9255  1.100      0.127658     -0.836115     -0.000059
    3   C      3    1.9255  1.100      1.378626     -1.515768     -0.000020
    4   C      4    1.9255  1.100      2.527736     -0.717818      0.000037
    5   C      5    1.9255  1.100      2.465769      0.707469      0.000057
    6   C      6    1.9255  1.100      1.249094      1.419006      0.000022
    7   C      7    1.9255  1.100     -2.027160     -0.127049     -0.000133
    8   C      8    1.9255  1.100     -1.214092     -1.265834     -0.000118
    9   H      9    1.4430  1.100      1.455182     -2.596344     -0.000032
   10   H     10    1.4430  1.100      1.211875      2.502337      0.000037
   11   H     11    1.4430  1.100     -1.565877     -2.286111     -0.000146
   12   O     12    1.7500  1.100      3.746217     -1.320601      0.000075
   13   H     13    1.4430  1.100      4.433695     -0.635857      0.000118
   14   O     14    1.7500  1.100      3.679054      1.326819      0.000112
   15   H     15    1.4430  1.100      3.582407      2.289714      0.000141
   16   N     16    1.8300  1.100     -1.209399      1.001769     -0.000087
   17   H     17    1.4430  1.100     -1.580068      1.940540     -0.000086
   18   C     18    1.9255  1.100     -3.500731      0.040303     -0.000184
   19   O     19    1.7500  1.100     -3.917268      1.240112      0.000282
   20   O     20    1.7500  1.100     -4.205741     -1.009832      0.000183
 ------------------------------------------------------------------------------
 One-electron integrals computed using PRISM.
 NBasis=   296 RedAO= T EigKep=  1.70D-06  NBF=   296
 NBsUse=   295 1.00D-06 EigRej=  9.09D-07 NBFU=   295
 Initial guess from the checkpoint file:  "K2Aexc.chk"
 B after Tr=     0.001861    0.001544    0.000039
         Rot=    1.000000   -0.000001   -0.000006    0.000454 Ang=  -0.05 deg.
 ExpMin= 4.38D-02 ExpMax= 5.48D+03 ExpMxC= 8.25D+02 IAcc=3 IRadAn=         5 AccDes= 0.00D+00
 Harris functional with IExCor=20419 and IRadAn=       5 diagonalized for initial guess.
 HarFok:  IExCor=20419 AccDes= 0.00D+00 IRadAn=         5 IDoV= 1 UseB2=F ITyADJ=14
 ICtDFT=  3500011 ScaDFX=  1.000000  1.000000  1.000000  1.000000
 FoFCou: FMM=F IPFlag=           0 FMFlag=      100000 FMFlg1=           0
         NFxFlg=           0 DoJE=T BraDBF=F KetDBF=T FulRan=T
         wScrn=  0.000000 ICntrl=       500 IOpCl=  0 I1Cent=   200000004 NGrid=           0
         NMat0=    1 NMatS0=      1 NMatT0=    0 NMatD0=    1 NMtDS0=    0 NMtDT0=    0
 Symmetry not used in FoFCou.
 Requested convergence on RMS density matrix=1.00D-08 within 128 cycles.
 Requested convergence on MAX density matrix=1.00D-06.
 Requested convergence on             energy=1.00D-06.
 No special actions if energy rises.
 Inv3:  Mode=1 IEnd=    10046700.
 Iteration    1 A*A^-1 deviation from unit magnitude is 5.44D-15 for   1813.
 Iteration    1 A*A^-1 deviation from orthogonality  is 2.02D-15 for   1810   1082.
 Iteration    1 A^-1*A deviation from unit magnitude is 5.44D-15 for   1813.
 Iteration    1 A^-1*A deviation from orthogonality  is 1.10D-15 for   1467   1152.
 Error on total polarization charges =  0.02353
 SCF Done:  E(RCAM-B3LYP) =  -702.131855298     A.U. after   14 cycles
            NFock= 14  Conv=0.84D-08     -V/T= 2.0093
 DoSCS=F DFT=T ScalE2(SS,OS)=  1.000000  1.000000
 ExpMin= 4.38D-02 ExpMax= 5.48D+03 ExpMxC= 8.25D+02 IAcc=3 IRadAn=         5 AccDes= 0.00D+00
 HarFok:  IExCor=  205 AccDes= 0.00D+00 IRadAn=         5 IDoV=-2 UseB2=F ITyADJ=14
 ICtDFT= 12500011 ScaDFX=  1.000000  1.000000  1.000000  1.000000
 Range of M.O.s used for correlation:    15   295
 NBasis=   296 NAE=    50 NBE=    50 NFC=    14 NFV=     0
 NROrb=    281 NOA=    36 NOB=    36 NVA=   245 NVB=   245

 **** Warning!!: The largest alpha MO coefficient is  0.17127220D+03

 NEqPCM:  Using equilibrium solvation (IEInf=0, Eps=  78.3553, EpsInf=   1.7778)
 Generating guess from densities on rwf.
 Convergence on wavefunction:    0.000001000000000
 Iteration     1 Dimension    10 NMult     0 NNew     10
 CISAX will form    10 AO SS matrices at one time.
 Iteration     2 Dimension    20 NMult    10 NNew     10
 Iteration     3 Dimension    30 NMult    20 NNew     10
 Iteration     4 Dimension    40 NMult    30 NNew     10
 Iteration     5 Dimension    50 NMult    40 NNew     10
 Iteration     6 Dimension    60 NMult    50 NNew     10
 Iteration     7 Dimension    70 NMult    60 NNew     10
 Iteration     8 Dimension    80 NMult    70 NNew     10
 Iteration     9 Dimension    90 NMult    80 NNew     10
 Iteration    10 Dimension   100 NMult    90 NNew     10
 Iteration    11 Dimension   106 NMult   100 NNew      6
 Iteration    12 Dimension   112 NMult   106 NNew      6
 Iteration    13 Dimension   114 NMult   112 NNew      2
 Iteration    14 Dimension   116 NMult   114 NNew      2
 Iteration    15 Dimension   118 NMult   116 NNew      2
 ***********************************************************************
 Excited states from <AA,BB:AA,BB> singles matrix:
 ***********************************************************************
 
 Ground to excited state transition densities written to RWF  633
 Ground to excited state transition electric dipole moments (Au):
       state          X           Y           Z        Dip. S.      Osc.
         1         2.5974      0.0266      0.0001      6.7470      0.6769
         2        -0.5591      1.1961     -0.0000      1.7433      0.1884
         3         0.0000      0.0001      0.0777      0.0060      0.0007
         4        -0.0000      0.0001     -0.0107      0.0001      0.0000
         5        -0.0009     -0.0005     -0.1976      0.0390      0.0050
 Ground to excited state transition velocity dipole moments (Au):
       state          X           Y           Z        Dip. S.      Osc.
         1        -0.3811     -0.0029     -0.0000      0.1453      0.6435
         2         0.0838     -0.1950      0.0000      0.0451      0.1853
         3        -0.0000     -0.0000      0.0016      0.0000      0.0000
         4         0.0000     -0.0000      0.0035      0.0000      0.0000
         5         0.0002      0.0001      0.0402      0.0016      0.0056
 Ground to excited state transition magnetic dipole moments (Au):
       state          X           Y           Z
         1         0.0000      0.0001     -0.2452
         2        -0.0000     -0.0000     -0.2611
         3         0.0736     -0.4258     -0.0001
         4        -0.4163      0.0020      0.0004
         5         0.0217     -0.0674      0.0005
 Ground to excited state transition velocity quadrupole moments (Au):
       state          XX          YY          ZZ          XY          XZ          YZ
         1         0.1195     -0.1214      0.0308     -0.1136     -0.0000      0.0000
         2        -0.6447      0.1733      0.0176     -0.1260     -0.0000      0.0000
         3         0.0001      0.0000      0.0000     -0.0000      0.2029      0.0216
         4        -0.0001      0.0000     -0.0000     -0.0001     -0.0138     -0.0443
         5        -0.0013      0.0001      0.0000      0.0004      0.0390      0.0363
 <0|del|b> * <b|rxdel|0> + <0|del|b> * <b|delr+rdel|0>
 Rotatory Strengths (R) in cgs (10**-40 erg-esu-cm/Gauss)
       state          XX          YY          ZZ    R(velocity)    E-M Angle
         1         0.0065     -0.0327     -0.0256     -0.0173       90.00
         2         0.0082     -0.0069      0.0091      0.0035       90.00
         3         0.0123     -0.0003      0.0043      0.0054       90.00
         4         0.0017      0.0005     -0.0022      0.0000       90.00
         5         0.0549      0.0249     -0.0087      0.0237       90.00
 1/2[<0|r|b>*<b|rxdel|0> + (<0|rxdel|b>*<b|r|0>)*]
 Rotatory Strengths (R) in cgs (10**-40 erg-esu-cm/Gauss)
       state          XX          YY          ZZ     R(length)
         1        -0.0621     -0.0019      0.0114     -0.0175
         2        -0.0160      0.0254     -0.0009      0.0028
         3        -0.0004      0.0167      0.0028      0.0064
         4        -0.0035     -0.0001      0.0030     -0.0002
         5         0.0132     -0.0227      0.0764      0.0223
  1/2[<0|del|b>*<b|r|0> + (<0|r|b>*<b|del|0>)*] (Au)
       state          X           Y           Z        Dip. S.   Osc.(frdel)
         1        -0.9899     -0.0001     -0.0000      0.9900      0.6600
         2        -0.0469     -0.2333     -0.0000      0.2801      0.1867
         3        -0.0000     -0.0000      0.0001     -0.0001     -0.0001
         4        -0.0000     -0.0000     -0.0000      0.0000      0.0000
         5        -0.0000     -0.0000     -0.0079      0.0079      0.0053

 Excitation energies and oscillator strengths:
 
 Excited state symmetry could not be determined.
 Excited State   1:      Singlet-?Sym    4.0953 eV  302.75 nm  f=0.6769  <S**2>=0.000
      49 -> 51         0.17975
      50 -> 51         0.66334
 This state for optimization and/or second-order correction.
 Total Energy, E(TD-HF/TD-DFT) =  -701.981356969    
 Copying the excited state density for this state as the 1-particle RhoCI density.
 
 Excited state symmetry could not be determined.
 Excited State   2:      Singlet-?Sym    4.4102 eV  281.13 nm  f=0.1884  <S**2>=0.000
      49 -> 51         0.65678
      50 -> 51        -0.19503
      50 -> 59        -0.10467
 
 Excited state symmetry could not be determined.
 Excited State   3:      Singlet-?Sym    4.9150 eV  252.26 nm  f=0.0007  <S**2>=0.000
      49 -> 52         0.15175
      50 -> 52         0.65183
      50 -> 58        -0.11742
 
 Excited state symmetry could not be determined.
 Excited State   4:      Singlet-?Sym    5.0144 eV  247.26 nm  f=0.0000  <S**2>=0.000
      48 -> 51         0.58647
      48 -> 55         0.31890
      48 -> 62         0.13180
 
 Excited state symmetry could not be determined.
 Excited State   5:      Singlet-?Sym    5.2641 eV  235.53 nm  f=0.0050  <S**2>=0.000
      49 -> 52         0.52419
      49 -> 53         0.13409
      49 -> 54         0.11561
      49 -> 58        -0.12226
      50 -> 52        -0.10091
      50 -> 53        -0.34862
 SavETr:  write IOETrn=   770 NScale= 10 NData=  16 NLR=1 NState=    5 LETran=     100.
          IDoAtm=11111111111111111111
 NEqPCM:  Using equilibrium solvation (IEInf=0, Eps=  78.3553, EpsInf=   1.7778)
          Differentiating once with respect to electric field.
                with respect to dipole field.
          Differentiating once with respect to nuclear coordinates.
 Keep R1 ints in memory in canonical form, NReq=1963367003.
          There are     1 degrees of freedom in the 1st order CPHF.  IDoFFX=0 NUNeed=     1.
 LinEq1:  Iter=  0 NonCon=     1 RMS=3.53D-03 Max=1.41D-01 NDo=     1
 AX will form     1 AO Fock derivatives at one time.
 LinEq1:  Iter=  1 NonCon=     1 RMS=1.05D-03 Max=4.94D-02 NDo=     1
 LinEq1:  Iter=  2 NonCon=     1 RMS=4.71D-04 Max=1.22D-02 NDo=     1
 LinEq1:  Iter=  3 NonCon=     1 RMS=2.10D-04 Max=6.54D-03 NDo=     1
 LinEq1:  Iter=  4 NonCon=     1 RMS=1.01D-04 Max=5.30D-03 NDo=     1
 LinEq1:  Iter=  5 NonCon=     1 RMS=5.57D-05 Max=1.44D-03 NDo=     1
 LinEq1:  Iter=  6 NonCon=     1 RMS=2.35D-05 Max=7.58D-04 NDo=     1
 LinEq1:  Iter=  7 NonCon=     1 RMS=1.82D-05 Max=5.78D-04 NDo=     1
 LinEq1:  Iter=  8 NonCon=     1 RMS=1.00D-05 Max=3.99D-04 NDo=     1
 LinEq1:  Iter=  9 NonCon=     1 RMS=5.81D-06 Max=1.79D-04 NDo=     1
 LinEq1:  Iter= 10 NonCon=     1 RMS=2.63D-06 Max=5.83D-05 NDo=     1
 LinEq1:  Iter= 11 NonCon=     1 RMS=1.49D-06 Max=3.94D-05 NDo=     1
 LinEq1:  Iter= 12 NonCon=     1 RMS=4.63D-07 Max=1.55D-05 NDo=     1
 LinEq1:  Iter= 13 NonCon=     1 RMS=2.74D-07 Max=9.05D-06 NDo=     1
 LinEq1:  Iter= 14 NonCon=     1 RMS=9.99D-08 Max=4.53D-06 NDo=     1
 LinEq1:  Iter= 15 NonCon=     1 RMS=4.75D-08 Max=2.13D-06 NDo=     1
 LinEq1:  Iter= 16 NonCon=     1 RMS=2.50D-08 Max=7.92D-07 NDo=     1
 LinEq1:  Iter= 17 NonCon=     1 RMS=7.74D-09 Max=2.79D-07 NDo=     1
 LinEq1:  Iter= 18 NonCon=     1 RMS=4.06D-09 Max=1.03D-07 NDo=     1
 LinEq1:  Iter= 19 NonCon=     1 RMS=1.47D-09 Max=3.36D-08 NDo=     1
 LinEq1:  Iter= 20 NonCon=     1 RMS=7.17D-10 Max=2.41D-08 NDo=     1
 LinEq1:  Iter= 21 NonCon=     1 RMS=3.21D-10 Max=6.18D-09 NDo=     1
 LinEq1:  Iter= 22 NonCon=     1 RMS=1.33D-10 Max=3.78D-09 NDo=     1
 LinEq1:  Iter= 23 NonCon=     0 RMS=4.89D-11 Max=9.66D-10 NDo=     1
 Linear equations converged to 1.000D-10 1.000D-09 after    23 iterations.
 End of Minotr F.D. properties file   721 does not exist.
 End of Minotr F.D. properties file   722 does not exist.
 End of Minotr F.D. properties file   788 does not exist.
 D1PCM: PCM CHGder 1st derivatives, ID1Alg=3 FixD1E=F DoIter=F DoCFld=F I1PDM=6.
 Calling FoFJK, ICntrl=  10005127 FMM=F ISym2X=0 I1Cent= 0 IOpClX= 0 NMat=1 NMatS=1 NMatT=0.
 -------------------------------------------------------------------
 Center     Atomic                   Forces (Hartrees/Bohr)
 Number     Number              X              Y              Z
 -------------------------------------------------------------------
      1        6           0.004580384    0.009300371   -0.000000030
      2        6          -0.008797144   -0.006588826    0.000000905
      3        6           0.002427815   -0.001778257   -0.000001205
      4        6          -0.000515059    0.002820889   -0.000000002
      5        6           0.007142113   -0.006349057    0.000000257
      6        6          -0.008440348    0.001724536   -0.000001041
      7        6          -0.015683404    0.004886728   -0.000033808
[...]
 03,-0.00234056,-0.00000164,-0.00000833,0.00291428,-0.00000724,0.000011
 00,0.00397365,-0.00000002,-0.00001875,-0.00592657,0.00005419,0.0000214
 0,0.08647087,-0.01143122,-0.04448042,0.00000344,-0.34994924,-0.0872622
 4,0.00001368,-0.03417347,-0.01755862,-0.00000103,0.00941600,0.00827317
 ,-0.00000032,0.02036192,-0.01070860,-0.00000245,-0.01099133,0.02261799
 ,0.00000184,-0.12804323,0.06691981,-0.00000963,0.62918014,-0.02349127,
 -0.02740712,0.00000129,-0.07263717,-0.15259576,0.00000328,0.00324067,0
 .03231372,-0.00000131,0.00119086,0.00220638,0.00000011,-0.01387550,0.0
 0216817,0.00000197,0.01075982,-0.02342209,-0.00000293,0.04060772,-0.19
 259485,0.00000667,0.13318356,0.75423811,0.00000118,-0.00000482,0.00332
 357,-0.00000156,0.00001334,-0.05691441,0.00000604,-0.00001017,0.011110
 06,-0.00000126,0.00000667,-0.00023911,0.00000667,-0.00001103,-0.003091
 75,-0.00000582,0.00000906,0.00577214,-0.00000539,0.00001920,-0.0437009
 5,0.00001098,-0.00001798,0.10211403,-0.00510722,-0.00031458,0.00000014
 ,0.00459892,0.02745392,-0.00000081,-0.05910690,0.01829947,0.00000134,0
 .00619191,-0.02596325,0.00000005,-0.00474567,-0.00007613,0.00000023,0.
 00043445,0.00045447,0.00000018,0.00032199,0.00083006,0.00000012,0.0018
 0889,-0.00077476,0.00000001,0.05399742,0.00243109,0.00091003,-0.000000
 05,-0.00179038,-0.00687947,0.00000009,0.01540297,-0.35153732,0.0000077
 1,0.00524616,-0.01013573,-0.00000019,-0.00164480,-0.00166406,0.0000001
 3,-0.00130885,-0.00028940,0.00000005,-0.00029298,0.00134656,-0.0000001
 0,0.00042892,0.00040729,-0.00000006,-0.01945572,0.36917395,-0.00000051
 ,-0.00000063,0.00202608,0.00000084,-0.00000055,-0.00075868,0.00000036,
 0.00000664,-0.01327502,0.00000009,0.00000132,0.00128181,0.00000023,0.0
 0000044,0.00084346,0.00000072,0.00000067,0.00116408,0.00000018,-0.0000
 0081,0.00046587,-0.00000086,0.00000053,-0.00117982,-0.00000114,-0.0000
 0768,0.01029478,0.00764514,-0.02816480,-0.00000044,-0.00447818,-0.0001
 8565,0.00000006,-0.00016895,0.00003109,0.00000006,-0.00483370,-0.00043
 451,0.00000004,0.00217847,0.02751004,0.00000049,-0.05913465,0.00539775
 ,0.00000100,-0.00037299,-0.00005017,-0.00000021,0.00034926,-0.00165110
 ,-0.00000004,0.00019157,-0.00005123,-0.00000002,0.05558259,0.00268559,
 -0.01088487,0.00000004,-0.00232113,0.00046896,-0.00000018,0.00024822,0
 .00019429,-0.00000014,0.00124431,0.00021478,0.00000018,-0.00423793,-0.
 00892147,0.00000016,0.00593057,-0.35151794,-0.00000781,0.00010363,-0.0
 0099844,0.00000011,-0.00002864,-0.00056642,-0.00000003,0.00001945,-0.0
 0007406,0.00000002,-0.00509561,0.36978521,-0.00000027,-0.00000089,0.00
 371586,-0.00000009,0.,0.00648839,0.00000002,-0.00000053,0.00125049,0.0
 0000031,0.00000005,-0.00142542,-0.00000055,-0.00000064,-0.00357973,0.0
 0000188,-0.00000598,-0.01656477,0.00000046,0.00000018,0.00054068,-0.00
 000014,-0.00000010,-0.00034313,-0.00000004,0.,-0.00072711,-0.00000175,
 0.00000843,0.01209975,-0.00506393,-0.00209205,0.00000008,0.00048484,-0
 .02443402,-0.00000023,0.00113241,-0.00030237,0.00000046,0.00029205,0.0
 0179201,-0.00000001,0.00034547,-0.00171436,-0.00000001,0.00028826,-0.0
 0101660,0.00000005,0.01293379,0.01662909,0.00000139,-0.09250661,-0.097
 72883,-0.00000219,-0.00022201,0.00042372,-0.00000003,-0.00040368,-0.00
 019674,-0.00000003,0.08531861,0.00055749,0.00015300,-0.00000028,0.0013
 2316,0.00042124,-0.00000032,0.00000004,0.00049520,-0.00000012,-0.00003
 845,0.00010855,0.00000002,0.00050073,-0.00030485,-0.00000011,-0.000564
 66,-0.00024731,0.00000016,-0.01100431,-0.01121288,-0.00000166,-0.09538
 830,-0.32929410,0.00000510,-0.00038592,-0.00009922,0.00000003,-0.00007
 152,0.00002703,0.00000009,0.10567298,0.34213906,-0.00000187,0.00000126
 ,0.00761300,-0.00000027,0.00000086,0.00480917,0.00000145,-0.00000075,-
 0.00366160,-0.00000005,-0.00000344,-0.00065621,0.00000076,0.00000298,0
 .00066773,0.00000078,0.00000146,-0.00060322,0.00000440,0.00000032,-0.0
 0111997,-0.00000467,-0.00000010,-0.02901334,0.00000003,0.00000009,0.00
 064814,0.00000007,-0.00000003,-0.00084150,0.00000076,-0.00000424,0.018
 81248,0.00251267,0.00928958,-0.00000122,-0.00128045,-0.01391520,0.0000
 0098,-0.04269135,0.02442668,-0.00000167,-0.25801249,0.08951985,0.00000
 198,-0.02602760,0.02117177,0.00000017,-0.00171718,-0.00126413,-0.00000
 103,-0.00275984,-0.00796470,-0.00000201,-0.00201510,0.00314105,0.00000
 149,0.00287144,0.00085807,0.00000008,-0.00070957,0.00032543,0.00000013
 ,0.00019525,-0.00011220,-0.00000077,0.59314493,-0.00000896,-0.00583549
 ,0.00000079,-0.00017853,0.00129528,-0.00000022,-0.02413668,0.01760742,
 0.00000082,0.05564894,-0.13829776,0.00000202,0.04734135,-0.03479516,0.
 00000039,-0.00415467,-0.00427638,0.00000062,0.00146779,0.00667069,0.00
 000113,-0.00040439,-0.00030326,-0.00000087,0.00076859,0.00090200,-0.00
 000002,0.00191764,-0.00057570,-0.00000011,-0.00020213,0.00001702,0.000
 00053,0.12880084,0.44375425,0.00000124,0.00000065,-0.00255924,0.000000
 23,0.00000044,0.00480464,0.00000211,-0.00000087,0.00137520,0.00000064,
 0.00000414,-0.02776628,0.00000064,-0.00000237,0.00941076,-0.00000161,-
 0.00000044,0.00317650,-0.00000042,0.00000052,-0.00093085,0.00000070,-0
 .00000039,0.00003666,-0.00000003,-0.00000006,-0.00174252,0.00000006,-0
 .00000011,0.00234500,-0.00000005,0.00000002,0.00000475,-0.00001768,-0.
 00002001,0.01952410,0.00056930,-0.00165961,0.00000012,-0.00050452,0.00
 042492,-0.00000006,-0.00378123,0.00424717,0.00000018,-0.03559089,-0.02
 395609,0.00000169,-0.00103571,-0.00345390,0.00000029,-0.00083094,-0.00
 092617,0.00000002,0.00023471,0.00203006,0.00000025,0.00038522,-0.00011
 025,-0.00000034,0.00025414,0.00002746,0.00000008,0.00034800,-0.0000921
 5,-0.00000002,-0.00005982,0.00000116,0.00000016,-0.27237631,-0.2076769
 6,0.00001409,0.31158086,-0.00093045,-0.00003598,0.00000013,0.00045325,
 0.00097836,-0.00000003,0.00336077,-0.00231983,0.00000003,0.01727642,0.
 01481300,-0.00000116,0.00858954,0.00101411,-0.00000027,-0.00026718,-0.
 00017288,0.00000012,0.00034280,-0.00056564,0.00000017,-0.00033268,0.00
 011044,-0.00000006,0.00003208,0.00014154,-0.00000002,0.00017707,-0.000
 01306,-0.00000001,0.00000900,-0.00000388,-0.00000003,-0.25906828,-0.28
 238502,0.00001797,0.23318356,0.26878215,0.00000001,0.00000002,0.000168
 90,-0.00000005,0.,0.00190071,0.00000009,0.00000014,0.00134127,-0.00000
 107,-0.00000062,-0.00458361,0.00000012,0.00000013,0.00191381,0.0000000
 2,0.00000003,-0.00040243,-0.00000007,0.00000006,-0.00022638,0.00000014
 ,-0.00000001,-0.00010143,-0.00000003,-0.00000002,-0.00077128,-0.000000
 02,0.00000002,-0.00016032,-0.00000001,0.,0.00004003,0.00001699,0.00001
 702,-0.00212929,-0.00001602,-0.00001666,0.00387331,-0.01542151,0.01643
 486,0.00000184,0.00044105,-0.01004956,0.00000020,-0.00032885,0.0007304
 3,-0.00000031,-0.01075343,-0.02328377,-0.00000154,-0.27110816,-0.05406
 594,0.00000806,-0.03916134,-0.02374957,0.00000156,0.00537827,-0.022008
 28,0.00000131,-0.01192181,0.00795633,0.00000100,-0.00015361,0.00031027
 ,-0.00000014,0.00407979,-0.00032550,-0.00000021,0.00044610,-0.00015862
 ,-0.00000169,0.00713469,0.00294335,0.00000062,0.00153889,-0.00150011,-
 0.00000003,0.36747012,-0.00896715,0.00601853,-0.00000011,-0.00065981,-
 0.01016034,0.00000004,0.00625743,-0.00478785,-0.00000113,-0.05200546,-
 0.04791133,0.00000065,-0.11187703,-0.14783375,0.00000418,0.01511726,0.
 01233725,-0.00000018,-0.00040738,-0.01632502,-0.00000102,-0.00557577,0
 .00407406,0.00000218,-0.00207240,-0.00051322,0.00000003,0.00043676,0.0
 0205134,0.00000011,0.00050129,-0.00002339,-0.00000125,-0.00430069,0.00
 193044,0.00000046,-0.00022515,0.00022979,-0.00000005,0.04722969,0.6951
 8745,0.00000034,0.00000019,0.00325689,-0.00000043,-0.00000042,-0.00081
 924,0.00000038,0.00000048,-0.00004061,-0.00000035,-0.00000040,0.010467
 17,0.00000845,0.00000347,-0.02030562,0.00000187,0.00000091,0.00207054,
 -0.00000080,0.,-0.00086109,0.00000065,-0.00000031,0.00069054,0.0000000
 8,0.00000006,0.00159424,-0.00000025,-0.00000007,-0.00028902,0.,0.,0.00
 004130,0.00000007,-0.00000011,-0.00584112,0.,-0.00000019,0.00012816,-0
 .00000898,-0.00002011,0.01110109,-0.00187902,-0.00007258,-0.00000004,0
 .00048523,-0.00013449,-0.00000005,0.00076277,-0.00150073,-0.00000008,-
 0.00746014,-0.00143902,0.00000028,0.00023099,-0.04633921,0.00000120,0.
 00252543,-0.00063414,-0.00000009,0.00120686,-0.00075177,0.00000037,-0.
 00045166,0.00053451,-0.00000011,-0.00035149,-0.00010343,0.00000002,-0.
 00132967,0.00136859,0.00000088,0.00005103,0.00003747,-0.00000006,0.000
 93273,0.00196854,0.,0.00079814,-0.00221802,-0.00000007,-0.05296599,0.1
 0041157,-0.00000192,0.05694465,0.00246237,-0.00267681,-0.00000002,0.00
 051216,0.00156441,-0.00000009,-0.00061658,-0.00091896,0.00000025,-0.00
 106518,0.00387197,0.00000044,0.00027999,-0.02466161,-0.00000036,0.0027
 2663,0.00402423,0.00000012,-0.00088540,0.00397488,-0.00000027,0.001887
 17,-0.00154086,0.00000002,-0.00018471,-0.00006462,-0.00000013,-0.00076
 662,-0.00053352,-0.00000050,-0.00007828,0.00003069,0.00000029,-0.00078
 525,0.00060871,0.00000014,-0.00008446,-0.00030717,-0.00000002,0.050690
 16,-0.50650806,0.00001604,-0.05156482,0.52477680,0.00000020,-0.0000003
 0,-0.00096889,0.00000006,0.00000031,-0.00036443,0.00000018,-0.00000004
 ,0.00078968,0.00000007,-0.00000023,0.00273632,-0.00000004,0.00000092,-
 0.00213830,-0.00000026,0.00000040,-0.00221898,0.00000041,0.00000034,-0
 .00009540,0.,0.00000002,0.00008891,0.,0.,0.00023884,0.00000073,-0.0000
 0050,0.00098187,-0.00000002,0.00000002,-0.00001921,-0.00000026,-0.0000
 0021,-0.00056148,-0.00000011,0.00000023,-0.00101324,-0.00000021,0.0000
 1537,-0.00022973,-0.00000006,-0.00001600,0.00218545,-0.24534960,0.0241
 8721,0.00000859,-0.00155612,0.06352103,0.00000188,-0.01802282,-0.01001
 608,0.00000267,0.00749742,0.04021042,0.00000023,-0.00088289,-0.0401805
 2,-0.00000076,-0.04777994,0.00934058,0.00000116,-0.19850397,-0.0821889
 8,-0.00002343,0.00107606,0.00128711,-0.00000258,-0.00048663,-0.0006086
 9,0.00000013,0.00183785,0.00103631,-0.00000053,-0.00408498,0.00208099,
 0.00000055,-0.00146788,-0.00222105,-0.00000063,-0.00106238,0.00097909,
 0.,0.01510520,0.01380383,0.00000066,0.00089356,-0.00248174,-0.00000047
 ,0.65396179,0.05790205,-0.18456895,-0.00000841,0.04391598,-0.01087438,
 -0.00000218,-0.02623342,-0.01604773,0.00000348,0.00722002,0.05379192,-
 0.00000199,0.00303542,-0.05449256,-0.00000147,-0.02951160,0.03470593,0
 .00000428,-0.09508004,-0.24446487,-0.00002707,0.00798819,-0.07448341,-
 0.00000941,0.00141297,-0.00181421,0.00000023,0.00091560,0.00189790,0.0
 0000015,0.00334689,-0.00267616,0.00000128,0.01156001,-0.00768338,0.000
 00003,-0.00200752,-0.00033832,-0.00000003,0.00944997,0.01265833,0.0000
 0056,0.00026017,-0.00183090,-0.00000035,-0.10989295,0.89373926,-0.0000
 0222,-0.00002235,-0.04962840,0.00000054,0.00000860,0.00650399,-0.00000
 394,-0.00001049,0.00431334,0.00000404,0.00001361,-0.00271772,0.0000056
 7,-0.00001379,0.00437528,0.00000003,0.00001530,0.01153907,-0.00001092,
 -0.00003684,-0.03307361,-0.00000512,0.00000745,0.00512958,-0.00000006,
 -0.00000004,0.00074344,0.,0.00000004,-0.00336821,-0.00000062,0.0000007
 1,0.00245532,0.00000295,-0.00000202,0.00054385,-0.00000040,-0.00000023
 ,-0.00000881,-0.00000094,0.00000136,-0.00167279,-0.00000022,0.00000004
 ,0.00068676,0.00000378,0.00009156,0.05678311,0.00091808,0.02390909,0.0
 0000207,-0.00418921,0.00199328,0.00000063,-0.00134277,0.00060810,0.000
 00011,0.00083029,0.00415469,-0.00000010,-0.00028019,-0.00362618,-0.000
 00014,0.00120599,0.00010952,-0.00000008,0.01765965,-0.01304049,-0.0000
 0021,-0.00221798,-0.00524278,-0.00000122,-0.00035249,0.00000360,0.0000
 0006,-0.00088151,-0.00059136,0.00000016,0.00094341,-0.00076571,0.00000
 045,0.00084718,-0.00069658,-0.00000001,-0.00018703,0.00001584,0.,0.001
 38901,0.00106354,-0.00000002,-0.00003578,-0.00023942,-0.00000002,-0.12
 217896,0.12567350,0.00001444,0.10468008,0.00006660,0.00596895,0.000001
 20,-0.00183015,0.00055667,0.00000006,0.00140119,0.00100425,-0.00000042
 ,-0.00021779,-0.00356142,0.00000032,0.00004313,0.00303647,0.00000007,-
 0.00040310,-0.00012796,0.,0.00971967,-0.02131969,0.00000035,-0.0039565
 1,-0.00149292,-0.00000153,-0.00005129,0.00020745,-0.00000013,0.0000536
 2,-0.00060067,-0.00000030,0.00071871,-0.00024304,-0.00000022,-0.001379
 37,0.00075450,-0.00000006,0.00019009,0.00004592,0.,-0.00110285,-0.0008
 9975,0.00000004,0.00004773,0.00020060,0.,0.12925515,-0.40832370,-0.000
 05194,-0.13565967,0.42499756,-0.00000155,-0.00000013,-0.00610916,-0.00
 000109,0.00000107,0.00219379,0.00000015,-0.00000059,0.00101651,0.00000
 025,-0.00000028,0.00025993,0.00000016,0.00000046,0.00003784,0.00000105
 ,0.00000158,-0.00079243,0.00000502,-0.00000249,-0.00328344,-0.00000146
 ,0.00000151,0.00391537,-0.00000007,0.00000005,-0.00048741,0.00000018,-
 0.00000013,0.00009265,0.00000002,0.00000029,0.00113246,-0.00000005,0.0
 0000002,0.00000826,0.00000003,-0.00000002,-0.00001387,-0.00000061,-0.0
 0000035,-0.00015135,-0.00000003,0.00000009,-0.00002296,0.00001527,-0.0
 0005370,-0.00657587,-0.00001725,0.00005377,0.01197770,-0.01252970,-0.0
 3760747,0.00000500,-0.00571645,0.03358202,0.00000550,0.00353211,-0.039
 11325,-0.00000003,0.00555722,0.03335519,-0.00000231,0.01076219,-0.0368
 8669,-0.00000138,0.00295830,0.04507471,0.00000237,-0.15531301,0.008246
 61,-0.00000528,-0.02277600,0.02961379,-0.00000998,-0.00009073,-0.00035
 178,-0.00000003,0.00037061,0.00027702,-0.00000045,-0.00101891,-0.00121
 976,-0.00000137,0.00858155,-0.00529287,0.00000029,-0.00140519,-0.00017
 862,0.00000006,0.00564728,0.00796043,0.00000049,-0.00123228,-0.0008951
 6,-0.00000054,-0.03547421,-0.03170648,-0.00001118,0.00002618,0.0012197
 0,-0.00000183,0.53023540,-0.00127398,-0.00064662,-0.00000147,-0.001008
 30,-0.00856217,-0.00000042,0.00440194,0.00316981,0.00000014,-0.0012201
 5,-0.00676281,0.00000021,0.00085792,0.00446345,0.00000034,-0.00312091,
 -0.00225516,-0.00000007,0.02309275,-0.08005238,0.00000535,0.02069330,0
 .00530346,0.00000228,0.00006438,0.00010356,0.00000002,0.00000102,-0.00
 005191,0.,-0.00024676,-0.00136146,-0.00000072,-0.00126743,0.00114464,-
 0.00000003,0.00028767,-0.00002857,0.,-0.00190393,-0.00140246,-0.000000
 13,0.00012388,0.00037306,0.00000006,-0.02447541,0.00840532,-0.00000031
 ,-0.00380376,-0.00238747,-0.00000102,0.03247935,0.79677671,-0.00000166
 ,-0.00000079,0.00162388,0.00000101,0.00000022,-0.00050621,0.00000166,-
 0.00000002,-0.00035505,-0.00000120,-0.00000377,0.00045574,-0.00000318,
 0.00000466,-0.00099967,0.00000433,-0.00000007,0.00008518,-0.00001227,0
 .00000134,-0.06636203,-0.00000588,0.00000104,0.00366799,0.00000005,0.0
 0000003,-0.00016430,0.00000008,0.,-0.00011716,0.00000026,-0.00000055,-
 0.00068152,-0.00000019,0.00000033,0.00044221,0.00000008,0.00000004,0.0
 0007060,0.00000019,-0.00000042,0.00118124,-0.00000008,-0.00000011,-0.0
 0007270,-0.00000468,0.00000190,0.00455830,0.00000026,0.00000025,-0.001
 83860,0.00004836,0.00003867,0.18622339,0.00421858,0.01038976,-0.000001
 41,0.00003016,-0.00561668,-0.00000161,-0.00169872,0.00927218,0.0000000
 5,-0.00039910,-0.00882668,0.00000051,-0.00103668,0.00986279,0.00000028
 ,-0.00096647,-0.01012152,-0.00000059,-0.04922401,0.04911269,-0.0000053
 7,-0.00233909,-0.00936649,0.00000177,-0.00007985,0.00023399,-0.0000000
 8,-0.00012079,-0.00017793,0.00000011,0.00034698,0.00044874,0.00000024,
 -0.00309034,0.00160251,-0.00000006,0.00046946,0.00001843,-0.00000002,-
 0.00330499,-0.00310879,-0.00000008,0.00036315,0.00049927,0.00000015,0.
 00206604,0.00897149,0.00000157,0.00253951,0.00176366,0.00000102,-0.138
 70848,0.12865745,0.00000036,0.15962759,-0.00333940,-0.01392221,0.00000
 169,-0.00388831,0.01310899,0.00000226,0.00132042,-0.01652700,0.0000000
 7,0.00281253,0.01626306,-0.00000088,0.00635471,-0.01872401,-0.00000063
 ,-0.00179914,0.01903013,0.00000119,0.05911673,-0.03362556,0.00000381,-
 0.00347871,0.01284621,-0.00000332,-0.00010642,-0.00013642,-0.00000003,
 0.00012948,0.00013081,-0.00000019,-0.00065410,0.00032365,-0.00000005,0
 .00379798,-0.00237323,0.00000015,-0.00064298,-0.00008441,0.00000003,0.
 00274958,0.00399035,0.00000022,-0.00046247,-0.00037229,-0.00000023,-0.
 01281355,-0.00795620,-0.00000432,0.00404288,0.00192546,-0.00000113,0.1
 0209199,-0.38279106,-0.00000512,-0.15598464,0.50155600,0.00000101,-0.0
 0000021,0.00039462,-0.00000137,0.00000095,0.00004279,0.00000004,-0.000
 00123,0.00066197,0.00000046,0.00000189,-0.00050340,0.00000165,-0.00000
 253,-0.00002172,-0.00000180,0.00000121,0.00042829,-0.00000210,0.000001
 63,0.01904688,0.00000048,0.00000023,0.00087759,-0.00000003,0.,-0.00000
 052,-0.00000003,0.,-0.00019715,-0.00000002,0.00000012,-0.00009073,0.00
 000018,-0.00000019,-0.00009646,-0.00000005,-0.00000002,-0.00002006,-0.
 00000002,0.00000031,0.00002511,0.,0.00000004,-0.00003486,-0.00000114,-
 0.00000025,-0.00110701,0.00000068,-0.00000140,-0.00157868,-0.00000336,
 -0.00000545,-0.06374860,0.00000486,0.00001509,0.02484492,0.00580882,0.
 01070298,-0.00000198,0.00045379,-0.01173806,-0.00000164,0.00158362,0.0
 1305995,-0.00000055,-0.00219368,-0.01440145,0.00000090,-0.00206626,0.0
 1394891,0.00000052,-0.00343840,-0.01484212,-0.00000101,-0.06251135,-0.
 04638813,-0.00001285,0.00623923,-0.00663727,0.00000136,0.00002586,0.00
 024159,0.00000002,-0.00014959,-0.00017213,0.00000013,0.00058176,-0.000
 91331,0.00000108,-0.00407233,0.00251327,-0.00000014,0.00065530,0.00005
 750,-0.00000002,-0.00351070,-0.00358217,-0.00000015,0.00051150,0.00058
 987,0.00000019,-0.00558754,0.01277975,0.00000260,0.00062653,0.00012150
 ,0.00000080,-0.19340589,-0.17233902,-0.00002750,0.03130704,0.00075343,
 0.00000054,0.22914229,0.00755337,0.01103052,-0.00000194,0.00468298,-0.
 01029932,-0.00000176,-0.00183818,0.01590969,-0.00000032,-0.00295026,-0
 .01244591,0.00000099,-0.00759647,0.01475426,0.00000060,0.00126884,-0.0
 1820517,-0.00000124,-0.05479252,-0.00874582,-0.00000803,0.00718277,-0.
 00996702,0.00000142,0.00004980,0.00001535,0.00000005,-0.00009886,-0.00
 003225,0.00000021,-0.00042743,0.00175087,0.00000177,-0.00283401,0.0018
 4044,-0.00000018,0.00044317,0.00013946,-0.00000003,-0.00034652,-0.0021
 1238,-0.00000023,0.00046821,-0.00001055,0.00000017,-0.00082273,0.01035
 613,0.00000367,0.00209193,0.00025879,0.00000100,-0.14064874,-0.3334379
 5,-0.00003763,-0.02763024,-0.09266228,-0.00001019,0.21624490,0.4318631
 3,0.00000039,0.00000056,-0.00070673,0.00000048,-0.00000108,-0.00028090
 ,-0.00000055,0.00000113,0.00047733,0.00000008,-0.00000006,0.00015355,0
 .00000008,0.00000012,-0.00006598,-0.00000068,-0.00000120,0.00059386,-0
 .00001060,-0.00000614,0.01974611,-0.00000034,-0.00000098,-0.00214251,-
 0.00000003,0.,-0.00019408,-0.00000002,-0.00000002,0.00009884,0.0000002
 1,0.00000073,0.00046291,-0.00000016,0.00000007,-0.00004470,0.00000002,
 0.,-0.00000607,-0.00000009,-0.00000007,-0.00034571,0.00000006,0.000000
 03,0.00003233,-0.00000070,0.00000140,0.00052040,0.00000020,-0.00000008
 ,0.00021926,-0.00002433,-0.00003746,-0.06346270,-0.00000171,-0.0000086
 3,0.02107701,0.00003770,0.00005167,0.02386778\\-0.00008241,-0.00006976
 ,-0.00001311,0.00009614,0.00004239,-0.00000336,-0.00012712,-0.00007044
 ,0.00000210,0.00012219,0.00006213,-0.00000754,-0.00007907,0.00001749,0
 .00000137,0.00011063,0.00003049,0.00000488,-0.00015494,0.00013074,-0.0
 0002213,0.00006253,-0.00015285,0.00001897,0.00001055,0.00001366,0.0000
 0017,-0.00003642,-0.00000521,0.00000001,-0.00000291,0.00000295,0.00000
 012,-0.00005696,0.00002232,0.00000275,-0.00000803,-0.00000343,0.000000
 14,0.00002660,-0.00000463,-0.00000099,0.00000021,0.00000653,-0.0000002
 6,0.00009757,0.00000650,0.00001147,-0.00000839,-0.00000353,0.00000627,
 0.00003925,-0.00004250,0.00000134,-0.00000735,0.00002708,-0.00000097,-
 0.00000209,-0.00000991,-0.00000124\\\@
 The archive entry for this job was punched.


 IF YOU GIVE A BOY AND A PIG EVERYTHING THEY WANT,
 YOU'LL GET A BAD BOY AND A GOOD PIG.
 Job cpu time:       1 days 22 hours 38 minutes 40.6 seconds.
 Elapsed time:       0 days  3 hours  1 minutes  2.4 seconds.
 File lengths (MBytes):  RWF=    995 Int=      0 D2E=      0 Chk=     83 Scr=      2
 Normal termination of Gaussian 16 at Thu May 20 20:34:05 2021.
