 Entering Gaussian System, Link 0=/home/software/apps/gaussian/g16/g16
 Initial command:
 /home/software/apps/gaussian/g16/l1.exe "/nfs/scratch/humepa/Gau-9739.inp" -scrdir="/nfs/scratch/humepa/"
 Entering Link 1 = /home/software/apps/gaussian/g16/l1.exe PID=      9740.
  
 Copyright (c) 1988-2019, Gaussian, Inc.  All Rights Reserved.
  
 This is part of the Gaussian(R) 16 program.  It is based on
 the Gaussian(R) 09 system (copyright 2009, Gaussian, Inc.),
 the Gaussian(R) 03 system (copyright 2003, Gaussian, Inc.),
 the Gaussian(R) 98 system (copyright 1998, Gaussian, Inc.),
 the Gaussian(R) 94 system (copyright 1995, Gaussian, Inc.),
 the Gaussian 92(TM) system (copyright 1992, Gaussian, Inc.),
 the Gaussian 90(TM) system (copyright 1990, Gaussian, Inc.),
 the Gaussian 88(TM) system (copyright 1988, Gaussian, Inc.),
 the Gaussian 86(TM) system (copyright 1986, Carnegie Mellon
 University), and the Gaussian 82(TM) system (copyright 1983,
 Carnegie Mellon University). Gaussian is a federally registered
 trademark of Gaussian, Inc.
  
 This software contains proprietary and confidential information,
 including trade secrets, belonging to Gaussian, Inc.
  
 This software is provided under written license and may be
 used, copied, transmitted, or stored only in accord with that
 written license.
  
 The following legend is applicable only to US Government
 contracts under FAR:
  
                    RESTRICTED RIGHTS LEGEND
  
 Use, reproduction and disclosure by the US Government is
 subject to restrictions as set forth in subparagraphs (a)
 and (c) of the Commercial Computer Software - Restricted
 Rights clause in FAR 52.227-19.
  
 Gaussian, Inc.
 340 Quinnipiac St., Bldg. 40, Wallingford CT 06492
  
  
 ---------------------------------------------------------------
 Warning -- This program may not be used in any manner that
 competes with the business of Gaussian, Inc. or will provide
 assistance to any competitor of Gaussian, Inc.  The licensee
 of this program is prohibited from giving any competitor of
 Gaussian, Inc. access to this program.  By using this program,
 the user acknowledges that Gaussian, Inc. is engaged in the
 business of creating and licensing software in the field of
 computational chemistry and represents and warrants to the
 licensee that it is not a competitor of Gaussian, Inc. and that
 it will not use this program in any manner prohibited above.
 ---------------------------------------------------------------
  

 Cite this work as:
 Gaussian 16, Revision C.01,
 M. J. Frisch, G. W. Trucks, H. B. Schlegel, G. E. Scuseria, 
 M. A. Robb, J. R. Cheeseman, G. Scalmani, V. Barone, 
 G. A. Petersson, H. Nakatsuji, X. Li, M. Caricato, A. V. Marenich, 
 J. Bloino, B. G. Janesko, R. Gomperts, B. Mennucci, H. P. Hratchian, 
 J. V. Ortiz, A. F. Izmaylov, J. L. Sonnenberg, D. Williams-Young, 
 F. Ding, F. Lipparini, F. Egidi, J. Goings, B. Peng, A. Petrone, 
 T. Henderson, D. Ranasinghe, V. G. Zakrzewski, J. Gao, N. Rega, 
 G. Zheng, W. Liang, M. Hada, M. Ehara, K. Toyota, R. Fukuda, 
 J. Hasegawa, M. Ishida, T. Nakajima, Y. Honda, O. Kitao, H. Nakai, 
 T. Vreven, K. Throssell, J. A. Montgomery, Jr., J. E. Peralta, 
 F. Ogliaro, M. J. Bearpark, J. J. Heyd, E. N. Brothers, K. N. Kudin, 
 V. N. Staroverov, T. A. Keith, R. Kobayashi, J. Normand, 
 K. Raghavachari, A. P. Rendell, J. C. Burant, S. S. Iyengar, 
 J. Tomasi, M. Cossi, J. M. Millam, M. Klene, C. Adamo, R. Cammi, 
 J. W. Ochterski, R. L. Martin, K. Morokuma, O. Farkas, 
 J. B. Foresman, and D. J. Fox, Gaussian, Inc., Wallingford CT, 2019.
 
 ******************************************
 Gaussian 16:  ES64L-G16RevC.01  3-Jul-2019
                29-Oct-2020 
 ******************************************
 %nprocshared=16
 Will use up to   16 processors via shared memory.
 %mem=60GB
 %oldchk=K2DA.chk
 %chk=K2DAexc.chk
 Copying data from "K2DA.chk" to current chk file "K2DAexc.chk"
 IOpt=  2 FromEx=T IUOpen= 4 IOptOp= 5 NList=   0 IFRang= 0 IUIn= 4 IUOut= 2.
 ----------------------------------------------------------------------
 # td(nstates=5,root=2) opt=tight cam-b3lyp/6-31+G(d,p) freq=raman int=
 (ultrafine,acc2e=12) scrf=(solvent=water) geom=check guess=read maxdis
 k=1TB
 ----------------------------------------------------------------------
 1/7=10,18=20,19=15,26=6,29=2,38=1/1,3;
 2/9=110,12=2,40=1/2;
 3/5=1,6=6,7=111,11=9,14=-4,25=1,27=12,30=1,70=2201,71=1,72=1,74=-40,75=-5,116=-2/1,2,3,8;
 4/5=1/1;
 5/5=2,38=6,53=1,87=12/2;
 8/6=1,10=2,87=12,107=2,108=5/1;
 9/8=2,15=2,41=5,42=1,70=2,87=12/14;
 10/5=4,28=2,87=12/2;
 6/7=2,8=2,9=2,10=2,87=12/1;
 7/12=6,13=5,14=2,87=12/1,2,3,16;
 1/7=10,18=20,19=15,26=6/3(2);
 2/9=110/2;
 99//99;
 2/9=110/2;
 3/5=1,6=6,7=111,11=9,14=-2,25=1,27=12,30=1,70=2205,71=1,72=1,74=-40,75=-5/1,2,3,8;
 4/5=5,16=3,69=1/1;
 5/5=2,38=5,53=1,87=12/2;
 8/6=1,10=2,87=12,107=2,108=5/1;
 9/8=2,15=2,41=5,42=1,49=4,70=2,87=12/14;
 10/5=4,28=2,87=12/2;
 7/12=6,13=5,14=2,87=12/1,2,3,16;
 1/7=10,18=20,19=15,26=6/3(-8);
 2/9=110/2;
 6/7=2,8=2,9=2,10=2,87=12/1;
 99/9=10/99;
 -------
 K2DAexc
 -------
 Structure from the checkpoint file:  "K2DAexc.chk"
 Charge = -2 Multiplicity = 1
 Redundant internal coordinates found in file.  (old form).
 C,0,-0.1144766963,0.5772692263,-0.0000363941
 C,0,-0.1331071943,-0.8358219565,0.0001051
 C,0,-1.3880960454,-1.5012824411,0.0001931852
 C,0,-2.5218735457,-0.7367176084,0.0001246231
 C,0,-2.5228997487,0.7158507719,-0.0000262193
 C,0,-1.2839927524,1.3634826441,-0.0000979031
 C,0,2.0264965046,-0.1491529609,-0.0000669621
 C,0,1.2307352964,-1.2719003924,0.0001491313
 H,0,-1.455567902,-2.5860053456,0.0003158814
 H,0,-1.2391054923,2.4491800734,-0.0002019138
 H,0,1.5903500213,-2.291590825,0.000272954
 O,0,-3.7862455959,-1.2728960155,0.000200756
 O,0,-3.7002458968,1.2800337639,-0.0000417626
 N,0,1.2037907924,0.9640757854,-0.0000984365
 H,0,1.5670879496,1.9045906149,-0.0002336144
 C,0,3.5094488048,0.0208825463,-0.0001999912
 O,0,3.9329657207,1.2143509554,-0.0000521477
 O,0,4.2221017695,-1.0206575788,0.0000368493
 H,0,-4.3364490735,-0.4513225845,0.0001058645
 Recover connectivity data from disk.

 GradGradGradGradGradGradGradGradGradGradGradGradGradGradGradGradGradGrad
 Berny optimization.
 Initialization pass.
                           ----------------------------
                           !    Initial Parameters    !
                           ! (Angstroms and Degrees)  !
 --------------------------                            --------------------------
 ! Name  Definition              Value          Derivative Info.                !
 --------------------------------------------------------------------------------
 ! R1    R(1,2)                  1.4132         estimate D2E/DX2                !
 ! R2    R(1,6)                  1.4092         estimate D2E/DX2                !
 ! R3    R(1,14)                 1.3738         estimate D2E/DX2                !
 ! R4    R(2,3)                  1.4205         estimate D2E/DX2                !
 ! R5    R(2,8)                  1.4319         estimate D2E/DX2                !
 ! R6    R(3,4)                  1.3675         estimate D2E/DX2                !
 ! R7    R(3,9)                  1.0868         estimate D2E/DX2                !
 ! R8    R(4,5)                  1.4526         estimate D2E/DX2                !
 ! R9    R(4,12)                 1.3734         estimate D2E/DX2                !
 ! R10   R(5,6)                  1.398          estimate D2E/DX2                !
 ! R11   R(5,13)                 1.3055         estimate D2E/DX2                !
 ! R12   R(6,10)                 1.0866         estimate D2E/DX2                !
 ! R13   R(7,8)                  1.3762         estimate D2E/DX2                !
 ! R14   R(7,14)                 1.3842         estimate D2E/DX2                !
 ! R15   R(7,16)                 1.4927         estimate D2E/DX2                !
 ! R16   R(8,11)                 1.0812         estimate D2E/DX2                !
 ! R17   R(12,19)                0.9888         estimate D2E/DX2                !
 ! R18   R(14,15)                1.0082         estimate D2E/DX2                !
 ! R19   R(16,17)                1.2664         estimate D2E/DX2                !
 ! R20   R(16,18)                1.262          estimate D2E/DX2                !
 ! A1    A(2,1,6)              123.1558         estimate D2E/DX2                !
 ! A2    A(2,1,14)             107.1081         estimate D2E/DX2                !
 ! A3    A(6,1,14)             129.7361         estimate D2E/DX2                !
 ! A4    A(1,2,3)              118.6902         estimate D2E/DX2                !
 ! A5    A(1,2,8)              106.9759         estimate D2E/DX2                !
 ! A6    A(3,2,8)              134.3338         estimate D2E/DX2                !
 ! A7    A(2,3,4)              118.0713         estimate D2E/DX2                !
 ! A8    A(2,3,9)              121.4942         estimate D2E/DX2                !
 ! A9    A(4,3,9)              120.4345         estimate D2E/DX2                !
 ! A10   A(3,4,5)              124.0343         estimate D2E/DX2                !
 ! A11   A(3,4,12)             123.026          estimate D2E/DX2                !
 ! A12   A(5,4,12)             112.9397         estimate D2E/DX2                !
 ! A13   A(4,5,6)              117.5576         estimate D2E/DX2                !
 ! A14   A(4,5,13)             115.6442         estimate D2E/DX2                !
 ! A15   A(6,5,13)             126.7982         estimate D2E/DX2                !
 ! A16   A(1,6,5)              118.4907         estimate D2E/DX2                !
 ! A17   A(1,6,10)             121.5437         estimate D2E/DX2                !
 ! A18   A(5,6,10)             119.9656         estimate D2E/DX2                !
 ! A19   A(8,7,14)             108.207          estimate D2E/DX2                !
 ! A20   A(8,7,16)             131.8686         estimate D2E/DX2                !
 ! A21   A(14,7,16)            119.9244         estimate D2E/DX2                !
 ! A22   A(2,8,7)              107.5963         estimate D2E/DX2                !
 ! A23   A(2,8,11)             127.1575         estimate D2E/DX2                !
 ! A24   A(7,8,11)             125.2462         estimate D2E/DX2                !
 ! A25   A(4,12,19)            100.8298         estimate D2E/DX2                !
 ! A26   A(1,14,7)             110.1126         estimate D2E/DX2                !
 ! A27   A(1,14,15)            127.4731         estimate D2E/DX2                !
 ! A28   A(7,14,15)            122.4143         estimate D2E/DX2                !
 ! A29   A(7,16,17)            116.0788         estimate D2E/DX2                !
 ! A30   A(7,16,18)            117.8401         estimate D2E/DX2                !
 ! A31   A(17,16,18)           126.081          estimate D2E/DX2                !
 ! D1    D(6,1,2,3)             -0.0002         estimate D2E/DX2                !
 ! D2    D(6,1,2,8)           -179.9991         estimate D2E/DX2                !
 ! D3    D(14,1,2,3)          -180.0            estimate D2E/DX2                !
 ! D4    D(14,1,2,8)             0.001          estimate D2E/DX2                !
 ! D5    D(2,1,6,5)             -0.0005         estimate D2E/DX2                !
 ! D6    D(2,1,6,10)           179.9997         estimate D2E/DX2                !
 ! D7    D(14,1,6,5)           179.9993         estimate D2E/DX2                !
 ! D8    D(14,1,6,10)           -0.0005         estimate D2E/DX2                !
 ! D9    D(2,1,14,7)             0.0029         estimate D2E/DX2                !
 ! D10   D(2,1,14,15)          179.9975         estimate D2E/DX2                !
 ! D11   D(6,1,14,7)          -179.9969         estimate D2E/DX2                !
 ! D12   D(6,1,14,15)           -0.0023         estimate D2E/DX2                !
 ! D13   D(1,2,3,4)              0.0006         estimate D2E/DX2                !
 ! D14   D(1,2,3,9)           -179.9992         estimate D2E/DX2                !
 ! D15   D(8,2,3,4)            179.9992         estimate D2E/DX2                !
 ! D16   D(8,2,3,9)             -0.0005         estimate D2E/DX2                !
 ! D17   D(1,2,8,7)             -0.0045         estimate D2E/DX2                !
 ! D18   D(1,2,8,11)           179.9986         estimate D2E/DX2                !
 ! D19   D(3,2,8,7)            179.9967         estimate D2E/DX2                !
 ! D20   D(3,2,8,11)            -0.0002         estimate D2E/DX2                !
 ! D21   D(2,3,4,5)             -0.0003         estimate D2E/DX2                !
 ! D22   D(2,3,4,12)          -179.9999         estimate D2E/DX2                !
 ! D23   D(9,3,4,5)            179.9994         estimate D2E/DX2                !
 ! D24   D(9,3,4,12)            -0.0002         estimate D2E/DX2                !
 ! D25   D(3,4,5,6)             -0.0003         estimate D2E/DX2                !
 ! D26   D(3,4,5,13)          -179.9985         estimate D2E/DX2                !
 ! D27   D(12,4,5,6)           179.9993         estimate D2E/DX2                !
 ! D28   D(12,4,5,13)            0.0012         estimate D2E/DX2                !
 ! D29   D(3,4,12,19)         -179.9993         estimate D2E/DX2                !
 ! D30   D(5,4,12,19)            0.0011         estimate D2E/DX2                !
 ! D31   D(4,5,6,1)              0.0007         estimate D2E/DX2                !
 ! D32   D(4,5,6,10)          -179.9995         estimate D2E/DX2                !
 ! D33   D(13,5,6,1)           179.9986         estimate D2E/DX2                !
 ! D34   D(13,5,6,10)           -0.0016         estimate D2E/DX2                !
 ! D35   D(14,7,8,2)             0.0063         estimate D2E/DX2                !
 ! D36   D(14,7,8,11)         -179.9967         estimate D2E/DX2                !
 ! D37   D(16,7,8,2)          -179.9965         estimate D2E/DX2                !
 ! D38   D(16,7,8,11)            0.0005         estimate D2E/DX2                !
 ! D39   D(8,7,14,1)            -0.0058         estimate D2E/DX2                !
 ! D40   D(8,7,14,15)          179.9992         estimate D2E/DX2                !
 ! D41   D(16,7,14,1)          179.9966         estimate D2E/DX2                !
 ! D42   D(16,7,14,15)           0.0016         estimate D2E/DX2                !
 ! D43   D(8,7,16,17)         -179.9825         estimate D2E/DX2                !
 ! D44   D(8,7,16,18)           -0.0074         estimate D2E/DX2                !
 ! D45   D(14,7,16,17)           0.0144         estimate D2E/DX2                !
 ! D46   D(14,7,16,18)         179.9896         estimate D2E/DX2                !
 --------------------------------------------------------------------------------
 Trust Radius=3.00D-01 FncErr=5.00D-06 GrdErr=5.00D-06 EigMax=2.50D+02 EigMin=1.00D-04
 Number of steps in this run=    107 maximum allowed number of steps=    114.
 GradGradGradGradGradGradGradGradGradGradGradGradGradGradGradGradGradGrad

                          Input orientation:                          
 ---------------------------------------------------------------------
 Center     Atomic      Atomic             Coordinates (Angstroms)
 Number     Number       Type             X           Y           Z
 ---------------------------------------------------------------------
      1          6           0       -0.114477    0.577269   -0.000036
      2          6           0       -0.133107   -0.835822    0.000105
      3          6           0       -1.388096   -1.501282    0.000193
      4          6           0       -2.521874   -0.736718    0.000125
      5          6           0       -2.522900    0.715851   -0.000026
      6          6           0       -1.283993    1.363483   -0.000098
      7          6           0        2.026497   -0.149153   -0.000067
      8          6           0        1.230735   -1.271900    0.000149
      9          1           0       -1.455568   -2.586005    0.000316
     10          1           0       -1.239105    2.449180   -0.000202
     11          1           0        1.590350   -2.291591    0.000273
     12          8           0       -3.786246   -1.272896    0.000201
     13          8           0       -3.700246    1.280034   -0.000042
     14          7           0        1.203791    0.964076   -0.000098
     15          1           0        1.567088    1.904591   -0.000234
     16          6           0        3.509449    0.020883   -0.000200
     17          8           0        3.932966    1.214351   -0.000052
     18          8           0        4.222102   -1.020658    0.000037
     19          1           0       -4.336449   -0.451323    0.000106
 ---------------------------------------------------------------------
                    Distance matrix (angstroms):
                    1          2          3          4          5
     1  C    0.000000
     2  C    1.413214   0.000000
     3  C    2.437721   1.420505   0.000000
     4  C    2.742649   2.390821   1.367483   0.000000
     5  C    2.412407   2.849350   2.490674   1.452569   0.000000
     6  C    1.409219   2.482233   2.866656   2.437866   1.397969
     7  C    2.260853   2.266143   3.672560   4.586164   4.630900
     8  C    2.286706   1.431863   2.628858   3.790580   4.247462
     9  H    3.435816   2.193637   1.086819   2.134683   3.470079
    10  H    2.183767   3.466190   3.953271   3.434449   2.156979
    11  H    3.337183   2.256007   3.081514   4.396364   5.095442
    12  O    4.111569   3.679192   2.409000   1.373362   2.356089
    13  O    3.653987   4.147448   3.616871   2.335776   1.305544
    14  N    1.373844   2.242081   3.577131   4.095519   3.734948
    15  H    2.142298   3.224984   4.509222   4.867866   4.259237
    16  C    3.666388   3.741946   5.128638   6.078718   6.072249
    17  O    4.097275   4.553697   5.973974   6.743265   6.475083
    18  O    4.621610   4.359129   5.630748   6.749950   6.964948
    19  H    4.345463   4.220891   3.129729   1.836882   2.156677
                    6          7          8          9         10
     6  C    0.000000
     7  C    3.639699   0.000000
     8  C    3.642678   1.376153   0.000000
     9  H    3.953213   4.250061   2.990501   0.000000
    10  H    1.086625   4.173187   4.466156   5.039836   0.000000
    11  H    4.649883   2.186381   1.081245   3.060114   5.520935
    12  O    3.634799   5.920369   5.016981   2.675129   4.510186
    13  O    2.417694   5.902385   5.552202   4.470440   2.724723
    14  N    2.519641   1.384241   2.236139   4.435681   2.858894
    15  H    2.901975   2.104500   3.194249   5.413123   2.858548
    16  C    4.977917   1.492669   2.619890   5.607785   5.333423
    17  O    5.219090   2.343879   3.671988   6.593861   5.317436
    18  O    6.000100   2.362245   3.001899   5.889503   6.470283
    19  H    3.551198   6.370116   5.627334   3.585575   4.243401
                   11         12         13         14         15
    11  H    0.000000
    12  O    5.472250   0.000000
    13  O    6.383330   2.554378   0.000000
    14  N    3.278535   5.468501   4.914204   0.000000
    15  H    4.196246   6.225319   5.304232   1.008243   0.000000
    16  C    3.005075   7.409522   7.318822   2.491119   2.705757
    17  O    4.216572   8.110032   7.633494   2.740626   2.464510
    18  O    2.922565   8.012319   8.249653   3.612391   3.950465
    19  H    6.205927   0.988791   1.844546   5.718182   6.356263
                   16         17         18         19
    16  C    0.000000
    17  O    1.266386   0.000000
    18  O    1.262014   2.253633   0.000000
    19  H    7.860095   8.435502   8.577467   0.000000
 Stoichiometry    C9H5NO4(2-)
 Framework group  C1[X(C9H5NO4)]
 Deg. of freedom    51
 Full point group                 C1      NOp   1
 Largest Abelian subgroup         C1      NOp   1
 Largest concise Abelian subgroup C1      NOp   1
                         Standard orientation:                         
 ---------------------------------------------------------------------
 Center     Atomic      Atomic             Coordinates (Angstroms)
 Number     Number       Type             X           Y           Z
 ---------------------------------------------------------------------
      1          6           0       -0.135701    0.614698   -0.000053
      2          6           0       -0.169240   -0.798118    0.000089
      3          6           0       -1.431181   -1.450300    0.000177
      4          6           0       -2.556828   -0.673815    0.000108
      5          6           0       -2.542528    0.778683   -0.000042
      6          6           0       -1.296857    1.413207   -0.000114
      7          6           0        1.997488   -0.134274   -0.000083
      8          6           0        1.189925   -1.248563    0.000133
      9          1           0       -1.510094   -2.534251    0.000300
     10          1           0       -1.240517    2.498370   -0.000218
     11          1           0        1.538761   -2.271991    0.000257
     12          8           0       -3.826787   -1.196623    0.000185
     13          8           0       -3.713856    1.355257   -0.000058
     14          7           0        1.186574    0.987573   -0.000115
     15          1           0        1.559775    1.924203   -0.000250
     16          6           0        3.482152    0.020105   -0.000216
     17          8           0        3.918238    1.209039   -0.000068
     18          8           0        4.183776   -1.028896    0.000021
     19          1           0       -4.368291   -0.369290    0.000090
 ---------------------------------------------------------------------
 Rotational constants (GHZ):           2.2855596           0.3510399           0.3043020
 Standard basis: 6-31+G(d,p) (6D, 7F)
 There are   291 symmetry adapted cartesian basis functions of A   symmetry.
 There are   291 symmetry adapted basis functions of A   symmetry.
   291 basis functions,   483 primitive gaussians,   291 cartesian basis functions
    50 alpha electrons       50 beta electrons
       nuclear repulsion energy       809.6456983815 Hartrees.
 NAtoms=   19 NActive=   19 NUniq=   19 SFac= 1.00D+00 NAtFMM=   60 NAOKFM=F Big=F
 Integral buffers will be    131072 words long.
 Raffenetti 1 integral format.
 Two-electron integral symmetry is turned on.
 Force PCM accuracy= 1.00D-12.
 ------------------------------------------------------------------------------
 Polarizable Continuum Model (PCM)
 =================================
 Model                : PCM.
 Atomic radii         : UFF (Universal Force Field).
 Polarization charges : Total charges.
 Charge compensation  : None.
 Solution method      : On-the-fly selection.
 Cavity type          : Scaled VdW (van der Waals Surface) (Alpha=1.100).
 Cavity algorithm     : GePol (No added spheres)
                        Default sphere list used, NSphG=   19.
                        Lebedev-Laikov grids with approx.  5.0 points / Ang**2.
                        Smoothing algorithm: York/Karplus (Gamma=1.0000).
                        Polarization charges: spherical gaussians, with
                                              point-specific exponents (IZeta= 3).
                        Self-potential: point-specific (ISelfS= 7).
                        Self-field    : sphere-specific E.n sum rule (ISelfD= 2).
 1st derivatives      : Analytical E(r).r(x)/FMM algorithm (CHGder, D1EAlg=3).
                        Cavity 1st derivative terms included.
 Solvent              : Water, Eps=  78.355300 Eps(inf)=   1.777849
 ------------------------------------------------------------------------------
 Spheres list:
 ISph  on   Nord     Re0    Alpha      Xe            Ye            Ze
    1   C      1    1.9255  1.100     -0.135701      0.614698     -0.000053
    2   C      2    1.9255  1.100     -0.169240     -0.798118      0.000089
    3   C      3    1.9255  1.100     -1.431181     -1.450300      0.000177
    4   C      4    1.9255  1.100     -2.556828     -0.673815      0.000108
    5   C      5    1.9255  1.100     -2.542528      0.778683     -0.000042
    6   C      6    1.9255  1.100     -1.296857      1.413207     -0.000114
    7   C      7    1.9255  1.100      1.997488     -0.134274     -0.000083
    8   C      8    1.9255  1.100      1.189925     -1.248563      0.000133
    9   H      9    1.4430  1.100     -1.510094     -2.534251      0.000300
   10   H     10    1.4430  1.100     -1.240517      2.498370     -0.000218
   11   H     11    1.4430  1.100      1.538761     -2.271991      0.000257
   12   O     12    1.7500  1.100     -3.826787     -1.196623      0.000185
   13   O     13    1.7500  1.100     -3.713856      1.355257     -0.000058
   14   N     14    1.8300  1.100      1.186574      0.987573     -0.000115
   15   H     15    1.4430  1.100      1.559775      1.924203     -0.000250
   16   C     16    1.9255  1.100      3.482152      0.020105     -0.000216
   17   O     17    1.7500  1.100      3.918238      1.209039     -0.000068
   18   O     18    1.7500  1.100      4.183776     -1.028896      0.000021
   19   H     19    1.4430  1.100     -4.368291     -0.369290      0.000090
 ------------------------------------------------------------------------------
 One-electron integrals computed using PRISM.
 NBasis=   291 RedAO= T EigKep=  1.61D-06  NBF=   291
 NBsUse=   290 1.00D-06 EigRej=  8.59D-07 NBFU=   290
 Initial guess from the checkpoint file:  "K2DAexc.chk"
 B after Tr=     0.000000    0.000000   -0.000000
         Rot=    1.000000    0.000000    0.000000   -0.000000 Ang=   0.00 deg.
 Requested convergence on RMS density matrix=1.00D-08 within 128 cycles.
 Requested convergence on MAX density matrix=1.00D-06.
 Requested convergence on             energy=1.00D-06.
 No special actions if energy rises.
 Inv3:  Mode=1 IEnd=     9937200.
 Iteration    1 A*A^-1 deviation from unit magnitude is 8.66D-15 for    201.
 Iteration    1 A*A^-1 deviation from orthogonality  is 2.70D-15 for   1816   1722.
 Iteration    1 A^-1*A deviation from unit magnitude is 8.22D-15 for    201.
 Iteration    1 A^-1*A deviation from orthogonality  is 3.06D-15 for   1392   1257.
 Error on total polarization charges =  0.03074
 SCF Done:  E(RCAM-B3LYP) =  -701.664183869     A.U. after    6 cycles
            NFock=  6  Conv=0.19D-08     -V/T= 2.0089
 DoSCS=F DFT=T ScalE2(SS,OS)=  1.000000  1.000000
 ExpMin= 4.38D-02 ExpMax= 5.48D+03 ExpMxC= 8.25D+02 IAcc=3 IRadAn=         5 AccDes= 0.00D+00
 HarFok:  IExCor=  205 AccDes= 0.00D+00 IRadAn=         5 IDoV=-2 UseB2=F ITyADJ=14
 ICtDFT= 12500011 ScaDFX=  1.000000  1.000000  1.000000  1.000000
 Range of M.O.s used for correlation:    15   290
 NBasis=   291 NAE=    50 NBE=    50 NFC=    14 NFV=     0
 NROrb=    276 NOA=    36 NOB=    36 NVA=   240 NVB=   240

 **** Warning!!: The largest alpha MO coefficient is  0.20491927D+03

 Keep R1, R2, and R3 ints in memory in canonical form, NReq=5561639466.
 NEqPCM:  Using equilibrium solvation (IEInf=0, Eps=  78.3553, EpsInf=   1.7778)
 Orbital symmetries:
       Occupied  (A) (A) (A) (A) (A) (A) (A) (A) (A) (A) (A) (A)
                 (A) (A) (A) (A) (A) (A) (A) (A) (A) (A) (A) (A)
                 (A) (A) (A) (A) (A) (A) (A) (A) (A) (A) (A) (A)
                 (A) (A) (A) (A) (A) (A) (A) (A) (A) (A) (A) (A)
                 (A) (A)
       Virtual   (A) (A) (A) (A) (A) (A) (A) (A) (A) (A) (A) (A)
                 (A) (A) (A) (A) (A) (A) (A) (A) (A) (A) (A) (A)
                 (A) (A) (A) (A) (A) (A) (A) (A) (A) (A) (A) (A)
                 (A) (A) (A) (A) (A) (A) (A) (A) (A) (A) (A) (A)
                 (A) (A) (A) (A) (A) (A) (A) (A) (A) (A) (A) (A)
                 (A) (A) (A) (A) (A) (A) (A) (A) (A) (A) (A) (A)
                 (A) (A) (A) (A) (A) (A) (A) (A) (A) (A) (A) (A)
                 (A) (A) (A) (A) (A) (A) (A) (A) (A) (A) (A) (A)
                 (A) (A) (A) (A) (A) (A) (A) (A) (A) (A) (A) (A)
                 (A) (A) (A) (A) (A) (A) (A) (A) (A) (A) (A) (A)
                 (A) (A) (A) (A) (A) (A) (A) (A) (A) (A) (A) (A)
                 (A) (A) (A) (A) (A) (A) (A) (A) (A) (A) (A) (A)
                 (A) (A) (A) (A) (A) (A) (A) (A) (A) (A) (A) (A)
                 (A) (A) (A) (A) (A) (A) (A) (A) (A) (A) (A) (A)
                 (A) (A) (A) (A) (A) (A) (A) (A) (A) (A) (A) (A)
                 (A) (A) (A) (A) (A) (A) (A) (A) (A) (A) (A) (A)
                 (A) (A) (A) (A) (A) (A) (A) (A) (A) (A) (A) (A)
                 (A) (A) (A) (A) (A) (A) (A) (A) (A) (A) (A) (A)
                 (A) (A) (A) (A) (A) (A) (A) (A) (A) (A) (A) (A)
                 (A) (A) (A) (A) (A) (A) (A) (A) (A) (A) (A) (A)
    20 initial guesses have been made.
 Convergence on wavefunction:    0.000001000000000
 Iteration     1 Dimension    20 NMult     0 NNew     20
 CISAX will form    20 AO SS matrices at one time.
 New state      1 was old state      2
 New state      2 was old state      1
 Iteration     2 Dimension    30 NMult    20 NNew     10
 New state      1 was old state      2
 New state      2 was old state      1
 New state      4 was old state      5
 New state      5 was old state      4
 Iteration     3 Dimension    40 NMult    30 NNew     10
 Iteration     4 Dimension    50 NMult    40 NNew     10
 Iteration     5 Dimension    60 NMult    50 NNew     10
 Iteration     6 Dimension    70 NMult    60 NNew     10
 Iteration     7 Dimension    80 NMult    70 NNew     10
 Iteration     8 Dimension    90 NMult    80 NNew     10
 Iteration     9 Dimension   100 NMult    90 NNew     10
 Iteration    10 Dimension   110 NMult   100 NNew     10
 Iteration    11 Dimension   118 NMult   110 NNew      8
 Iteration    12 Dimension   126 NMult   118 NNew      8
 Iteration    13 Dimension   128 NMult   126 NNew      2
 Iteration    14 Dimension   130 NMult   128 NNew      2
 ***********************************************************************
 Excited states from <AA,BB:AA,BB> singles matrix:
 ***********************************************************************
 
 Ground to excited state transition densities written to RWF  633
 Ground to excited state transition electric dipole moments (Au):
       state          X           Y           Z        Dip. S.      Osc.
         1         2.9327      0.2221     -0.0002      8.6500      0.8314
         2        -0.0008     -0.0001     -0.1496      0.0224      0.0022
         3         0.0001      0.0001     -0.2859      0.0817      0.0091
         4         0.5486      0.4041      0.0002      0.4643      0.0530
         5        -0.0022      0.0028      0.0022      0.0000      0.0000
 Ground to excited state transition velocity dipole moments (Au):
       state          X           Y           Z        Dip. S.      Osc.
         1        -0.4089     -0.0325      0.0000      0.1683      0.7780
         2         0.0001      0.0000      0.0030      0.0000      0.0000
         3        -0.0000     -0.0000      0.0537      0.0029      0.0115
         4        -0.0839     -0.0737     -0.0000      0.0125      0.0486
         5         0.0004     -0.0005     -0.0038      0.0000      0.0001
 Ground to excited state transition magnetic dipole moments (Au):
       state          X           Y           Z
         1        -0.0000     -0.0001     -0.3706
         2         0.0010     -0.4304      0.0001
         3        -0.0083      0.5249      0.0000
         4        -0.0001     -0.0005      0.1369
         5        -0.0090     -0.0199      0.0016
 Ground to excited state transition velocity quadrupole moments (Au):
       state          XX          YY          ZZ          XY          XZ          YZ
         1         0.3031      0.0719     -0.0444     -0.1640      0.0001     -0.0000
         2        -0.0002     -0.0000     -0.0000      0.0001      0.2597      0.0002
         3        -0.0015      0.0002      0.0001     -0.0003     -0.3405      0.0356
         4        -1.3178      0.2519      0.0685     -0.3058      0.0004     -0.0001
         5         0.0018      0.0001     -0.0001      0.0006      0.0195      0.0183
 <0|del|b> * <b|rxdel|0> + <0|del|b> * <b|delr+rdel|0>
 Rotatory Strengths (R) in cgs (10**-40 erg-esu-cm/Gauss)
       state          XX          YY          ZZ    R(velocity)    E-M Angle
         1        -0.0177      0.0536      0.0277      0.0212       90.00
         2        -0.0105      0.0009     -0.0028     -0.0041       90.00
         3        -0.0724      0.0381     -0.0077     -0.0140       90.00
         4         0.1604     -0.0063      0.0051      0.0531       90.00
         5         0.0208     -0.0008     -0.0193      0.0002       90.00
 1/2[<0|r|b>*<b|rxdel|0> + (<0|rxdel|b>*<b|r|0>)*]
 Rotatory Strengths (R) in cgs (10**-40 erg-esu-cm/Gauss)
       state          XX          YY          ZZ     R(length)
         1         0.0944      0.0149     -0.0522      0.0190
         2         0.0005     -0.0196      0.0154     -0.0012
         3         0.0007     -0.0408      0.0076     -0.0108
         4         0.0277      0.1471     -0.0195      0.0517
         5        -0.0136      0.0397     -0.0025      0.0079
  1/2[<0|del|b>*<b|r|0> + (<0|r|b>*<b|del|0>)*] (Au)
       state          X           Y           Z        Dip. S.   Osc.(frdel)
         1        -1.1992     -0.0072     -0.0000      1.2064      0.8043
         2        -0.0000     -0.0000     -0.0005      0.0005      0.0003
         3        -0.0000     -0.0000     -0.0153      0.0153      0.0102
         4        -0.0460     -0.0298     -0.0000      0.0758      0.0505
         5        -0.0000     -0.0000     -0.0000      0.0000      0.0000

 Excitation energies and oscillator strengths:
 
 Excited State   1:      Singlet-A      3.9234 eV  316.02 nm  f=0.8314  <S**2>=0.000
      50 -> 51         0.68222
      50 -> 55        -0.10868
 
 Excited State   2:      Singlet-A      4.0738 eV  304.35 nm  f=0.0022  <S**2>=0.000
      50 -> 52         0.62859
      50 -> 53        -0.22115
      50 -> 58        -0.11581
 This state for optimization and/or second-order correction.
 Total Energy, E(TD-HF/TD-DFT) =  -701.514475357    
 Copying the excited state density for this state as the 1-particle RhoCI density.
 
 Excited State   3:      Singlet-A      4.5568 eV  272.09 nm  f=0.0091  <S**2>=0.000
      49 -> 52         0.14279
      50 -> 52         0.19923
      50 -> 53         0.59694
      50 -> 56         0.21200
 
 Excited State   4:      Singlet-A      4.6590 eV  266.12 nm  f=0.0530  <S**2>=0.000
      49 -> 51         0.45713
      50 -> 51         0.10656
      50 -> 55         0.43345
      50 -> 59         0.22372
 
 Excited State   5:      Singlet-A      4.8079 eV  257.88 nm  f=0.0000  <S**2>=0.000
      49 -> 52         0.22106
      50 -> 54         0.59508
      50 -> 57        -0.13979
      50 -> 58         0.18986
 SavETr:  write IOETrn=   770 NScale= 10 NData=  16 NLR=1 NState=    5 LETran=     100.
          IDoAtm=1111111111111111111
 NEqPCM:  Using equilibrium solvation (IEInf=0, Eps=  78.3553, EpsInf=   1.7778)
          Differentiating once with respect to electric field.
                with respect to dipole field.
          Differentiating once with respect to nuclear coordinates.
 Keep R1 ints in memory in canonical form, NReq=1835514580.
          There are     1 degrees of freedom in the 1st order CPHF.  IDoFFX=0 NUNeed=     1.
 LinEq1:  Iter=  0 NonCon=     1 RMS=5.38D-03 Max=1.64D-01 NDo=     1
 AX will form     1 AO Fock derivatives at one time.
 LinEq1:  Iter=  1 NonCon=     1 RMS=2.45D-03 Max=9.57D-02 NDo=     1
 LinEq1:  Iter=  2 NonCon=     1 RMS=1.66D-03 Max=4.87D-02 NDo=     1
 LinEq1:  Iter=  3 NonCon=     1 RMS=6.47D-04 Max=2.16D-02 NDo=     1
 LinEq1:  Iter=  4 NonCon=     1 RMS=3.19D-04 Max=1.09D-02 NDo=     1
 LinEq1:  Iter=  5 NonCon=     1 RMS=1.30D-04 Max=5.09D-03 NDo=     1
 LinEq1:  Iter=  6 NonCon=     1 RMS=7.34D-05 Max=2.98D-03 NDo=     1
 LinEq1:  Iter=  7 NonCon=     1 RMS=3.17D-05 Max=1.04D-03 NDo=     1
 LinEq1:  Iter=  8 NonCon=     1 RMS=1.98D-05 Max=4.56D-04 NDo=     1
 LinEq1:  Iter=  9 NonCon=     1 RMS=1.02D-05 Max=3.03D-04 NDo=     1
 LinEq1:  Iter= 10 NonCon=     1 RMS=7.13D-06 Max=1.80D-04 NDo=     1
 LinEq1:  Iter= 11 NonCon=     1 RMS=3.03D-06 Max=1.05D-04 NDo=     1
 LinEq1:  Iter= 12 NonCon=     1 RMS=1.46D-06 Max=3.20D-05 NDo=     1
 LinEq1:  Iter= 13 NonCon=     1 RMS=5.75D-07 Max=2.06D-05 NDo=     1
 LinEq1:  Iter= 14 NonCon=     1 RMS=3.25D-07 Max=9.04D-06 NDo=     1
 LinEq1:  Iter= 15 NonCon=     1 RMS=1.21D-07 Max=4.07D-06 NDo=     1
 LinEq1:  Iter= 16 NonCon=     1 RMS=6.17D-08 Max=1.17D-06 NDo=     1
 LinEq1:  Iter= 17 NonCon=     1 RMS=2.98D-08 Max=1.02D-06 NDo=     1
 LinEq1:  Iter= 18 NonCon=     1 RMS=1.30D-08 Max=3.10D-07 NDo=     1
 LinEq1:  Iter= 19 NonCon=     1 RMS=6.11D-09 Max=1.36D-07 NDo=     1
 LinEq1:  Iter= 20 NonCon=     1 RMS=2.63D-09 Max=9.50D-08 NDo=     1
 LinEq1:  Iter= 21 NonCon=     1 RMS=1.20D-09 Max=3.34D-08 NDo=     1
 LinEq1:  Iter= 22 NonCon=     1 RMS=3.71D-10 Max=8.33D-09 NDo=     1
 LinEq1:  Iter= 23 NonCon=     1 RMS=2.05D-10 Max=5.69D-09 NDo=     1
 LinEq1:  Iter= 24 NonCon=     1 RMS=8.07D-11 Max=1.45D-09 NDo=     1
 LinEq1:  Iter= 25 NonCon=     0 RMS=3.20D-11 Max=7.90D-10 NDo=     1
 Linear equations converged to 1.000D-10 1.000D-09 after    25 iterations.
 End of Minotr F.D. properties file   721 does not exist.
 End of Minotr F.D. properties file   722 does not exist.
 End of Minotr F.D. properties file   788 does not exist.

 **********************************************************************

            Population analysis using the SCF Density.

 **********************************************************************

 Orbital symmetries:
       Occupied  (A) (A) (A) (A) (A) (A) (A) (A) (A) (A) (A) (A)
                 (A) (A) (A) (A) (A) (A) (A) (A) (A) (A) (A) (A)
                 (A) (A) (A) (A) (A) (A) (A) (A) (A) (A) (A) (A)
                 (A) (A) (A) (A) (A) (A) (A) (A) (A) (A) (A) (A)
                 (A) (A)
       Virtual   (A) (A) (A) (A) (A) (A) (A) (A) (A) (A) (A) (A)
                 (A) (A) (A) (A) (A) (A) (A) (A) (A) (A) (A) (A)
                 (A) (A) (A) (A) (A) (A) (A) (A) (A) (A) (A) (A)
                 (A) (A) (A) (A) (A) (A) (A) (A) (A) (A) (A) (A)
                 (A) (A) (A) (A) (A) (A) (A) (A) (A) (A) (A) (A)
                 (A) (A) (A) (A) (A) (A) (A) (A) (A) (A) (A) (A)
                 (A) (A) (A) (A) (A) (A) (A) (A) (A) (A) (A) (A)
                 (A) (A) (A) (A) (A) (A) (A) (A) (A) (A) (A) (A)
                 (A) (A) (A) (A) (A) (A) (A) (A) (A) (A) (A) (A)
                 (A) (A) (A) (A) (A) (A) (A) (A) (A) (A) (A) (A)
                 (A) (A) (A) (A) (A) (A) (A) (A) (A) (A) (A) (A)
                 (A) (A) (A) (A) (A) (A) (A) (A) (A) (A) (A) (A)
                 (A) (A) (A) (A) (A) (A) (A) (A) (A) (A) (A) (A)
                 (A) (A) (A) (A) (A) (A) (A) (A) (A) (A) (A) (A)
                 (A) (A) (A) (A) (A) (A) (A) (A) (A) (A) (A) (A)
                 (A) (A) (A) (A) (A) (A) (A) (A) (A) (A) (A) (A)
                 (A) (A) (A) (A) (A) (A) (A) (A) (A) (A) (A) (A)
                 (A) (A) (A) (A) (A) (A) (A) (A) (A) (A) (A) (A)
                 (A) (A) (A) (A) (A) (A) (A) (A) (A) (A) (A) (A)
                 (A) (A) (A) (A) (A) (A) (A) (A) (A) (A) (A) (A)
 The electronic state is 1-A.
 Alpha  occ. eigenvalues --  -19.22718 -19.16066 -19.15936 -19.15061 -14.42801
 Alpha  occ. eigenvalues --  -10.34494 -10.28889 -10.28824 -10.27477 -10.26757
 Alpha  occ. eigenvalues --  -10.24321 -10.23768 -10.23721 -10.22913  -1.11886
 Alpha  occ. eigenvalues --   -1.09874  -1.04121  -1.02712  -1.00431  -0.89130
 Alpha  occ. eigenvalues --   -0.83863  -0.79150  -0.76454  -0.67797  -0.65266
 Alpha  occ. eigenvalues --   -0.64291  -0.60921  -0.56845  -0.54542  -0.52204
 Alpha  occ. eigenvalues --   -0.50055  -0.49254  -0.48604  -0.47841  -0.46648
 Alpha  occ. eigenvalues --   -0.46061  -0.44839  -0.43858  -0.43112  -0.42796
 Alpha  occ. eigenvalues --   -0.38669  -0.38184  -0.34050  -0.30828  -0.30687
 Alpha  occ. eigenvalues --   -0.30196  -0.29447  -0.29130  -0.24000  -0.20454
 Alpha virt. eigenvalues --    0.03619   0.03807   0.04642   0.05227   0.06276
 Alpha virt. eigenvalues --    0.06592   0.07138   0.08023   0.08711   0.09245
 Alpha virt. eigenvalues --    0.09522   0.10157   0.10723   0.11134   0.12044
 Alpha virt. eigenvalues --    0.12577   0.13122   0.13373   0.14698   0.15712
 Alpha virt. eigenvalues --    0.16369   0.17162   0.17171   0.18414   0.19251
 Alpha virt. eigenvalues --    0.20273   0.20333   0.20624   0.21751   0.21762
 Alpha virt. eigenvalues --    0.22547   0.23182   0.23446   0.23686   0.24966
 Alpha virt. eigenvalues --    0.25323   0.25697   0.26609   0.26713   0.27993
 Alpha virt. eigenvalues --    0.28168   0.28798   0.29551   0.29851   0.30340
 Alpha virt. eigenvalues --    0.30404   0.30778   0.31151   0.31958   0.32926
 Alpha virt. eigenvalues --    0.33228   0.33674   0.34800   0.34905   0.35168
 Alpha virt. eigenvalues --    0.36407   0.36882   0.37491   0.37675   0.38447
 Alpha virt. eigenvalues --    0.39167   0.39497   0.41125   0.41515   0.43505
 Alpha virt. eigenvalues --    0.43881   0.44375   0.44690   0.45599   0.48175
 Alpha virt. eigenvalues --    0.49754   0.51247   0.52976   0.54387   0.56706
 Alpha virt. eigenvalues --    0.57416   0.62721   0.65114   0.73121   0.73311
 Alpha virt. eigenvalues --    0.75283   0.78557   0.78560   0.79070   0.81201
 Alpha virt. eigenvalues --    0.81811   0.82761   0.83098   0.83527   0.86545
 Alpha virt. eigenvalues --    0.87076   0.89213   0.89803   0.93038   0.93710
 Alpha virt. eigenvalues --    0.94277   0.96050   0.96948   0.98536   1.01841
 Alpha virt. eigenvalues --    1.02590   1.05420   1.09100   1.11068   1.12686
 Alpha virt. eigenvalues --    1.13752   1.15209   1.16645   1.19036   1.20062
 Alpha virt. eigenvalues --    1.22733   1.23571   1.25107   1.26728   1.27350
 Alpha virt. eigenvalues --    1.28472   1.30129   1.30988   1.32385   1.33787
 Alpha virt. eigenvalues --    1.36173   1.36528   1.36574   1.37913   1.39585
 Alpha virt. eigenvalues --    1.40602   1.41480   1.42794   1.43346   1.44003
 Alpha virt. eigenvalues --    1.44986   1.46211   1.47789   1.48144   1.48284
 Alpha virt. eigenvalues --    1.48921   1.50114   1.50494   1.52990   1.53366
 Alpha virt. eigenvalues --    1.53480   1.56748   1.62256   1.64511   1.68253
 Alpha virt. eigenvalues --    1.69664   1.76080   1.82390   1.83861   1.85199
 Alpha virt. eigenvalues --    1.88835   1.89417   1.90158   1.91954   1.92849
 Alpha virt. eigenvalues --    1.93542   1.94135   1.94965   1.98089   1.99033
 Alpha virt. eigenvalues --    1.99517   2.00537   2.02120   2.02966   2.04205
 Alpha virt. eigenvalues --    2.05929   2.06530   2.10538   2.12760   2.15705
 Alpha virt. eigenvalues --    2.18989   2.19535   2.21696   2.22441   2.25461
 Alpha virt. eigenvalues --    2.26053   2.28480   2.30208   2.30693   2.34814
 Alpha virt. eigenvalues --    2.36093   2.36576   2.44303   2.46753   2.48386
 Alpha virt. eigenvalues --    2.50378   2.51091   2.55179   2.56462   2.58218
 Alpha virt. eigenvalues --    2.59299   2.61744   2.62602   2.67169   2.69147
 Alpha virt. eigenvalues --    2.73042   2.75633   2.77342   2.79376   2.80250
 Alpha virt. eigenvalues --    2.82256   2.83126   2.83168   2.86138   2.86707
 Alpha virt. eigenvalues --    2.89514   2.92703   2.98688   2.99643   3.03661
 Alpha virt. eigenvalues --    3.10180   3.12268   3.14161   3.17527   3.20439
 Alpha virt. eigenvalues --    3.22107   3.27509   3.28685   3.32109   3.38762
 Alpha virt. eigenvalues --    3.46076   3.56225   3.64639   3.68479   3.72692
 Alpha virt. eigenvalues --    3.83771   4.25514   4.31663   4.39206   4.42713
 Alpha virt. eigenvalues --    4.44667   4.48029   4.55735   4.61045   4.62711
 Alpha virt. eigenvalues --    4.65121   4.82279   4.84541   4.91307   5.16027
          Condensed to atoms (all electrons):
               1          2          3          4          5          6
     1  C   11.945506   0.081658  -3.970883   1.043989   0.016412  -0.518447
     2  C    0.081658  14.315315  -6.252682  -0.174894  -0.459243  -0.075980
     3  C   -3.970883  -6.252682  18.682263  -1.829196  -1.224178   0.628725
     4  C    1.043989  -0.174894  -1.829196   9.107041  -0.393537  -1.035758
     5  C    0.016412  -0.459243  -1.224178  -0.393537   7.472894  -0.312475
     6  C   -0.518447  -0.075980   0.628725  -1.035758  -0.312475   9.598683
     7  C    0.954905   0.961716  -2.385735  -0.213464  -0.090511   0.266835
     8  C   -3.172115  -2.496814   3.308414  -0.567165   0.340815  -1.497410
     9  H    0.044755   0.022139   0.232669   0.008916   0.027754  -0.027113
    10  H   -0.015362   0.046388  -0.043536   0.054281  -0.051376   0.327601
    11  H    0.100988  -0.053746  -0.002764  -0.000477   0.002613  -0.000405
    12  O   -0.009627   0.060404  -0.580946   0.406136   0.046509  -0.037080
    13  O    0.061850  -0.055666  -0.022763  -0.313702   0.465479  -0.228634
    14  N   -0.165412   0.256459   0.098427  -0.033475   0.013517  -0.033445
    15  H   -0.120091   0.143809   0.037855  -0.004097   0.000628  -0.090023
    16  C    0.247920  -1.143970  -0.503390  -0.047415   0.036802  -0.110038
    17  O    0.001435   0.000357   0.004858   0.000603   0.001117  -0.022566
    18  O    0.005765   0.046873  -0.007662   0.001049   0.000096  -0.003050
    19  H   -0.015277  -0.011267   0.198805  -0.062342  -0.167720   0.039770
               7          8          9         10         11         12
     1  C    0.954905  -3.172115   0.044755  -0.015362   0.100988  -0.009627
     2  C    0.961716  -2.496814   0.022139   0.046388  -0.053746   0.060404
     3  C   -2.385735   3.308414   0.232669  -0.043536  -0.002764  -0.580946
     4  C   -0.213464  -0.567165   0.008916   0.054281  -0.000477   0.406136
     5  C   -0.090511   0.340815   0.027754  -0.051376   0.002613   0.046509
     6  C    0.266835  -1.497410  -0.027113   0.327601  -0.000405  -0.037080
     7  C   12.159171  -1.739449  -0.007106   0.006500  -0.056770   0.001422
     8  C   -1.739449  10.898865   0.008562  -0.003057   0.335881  -0.003502
     9  H   -0.007106   0.008562   0.559447   0.000014   0.001197  -0.002066
    10  H    0.006500  -0.003057   0.000014   0.569056   0.000001  -0.000723
    11  H   -0.056770   0.335881   0.001197   0.000001   0.546252  -0.000004
    12  O    0.001422  -0.003502  -0.002066  -0.000723  -0.000004   8.640652
    13  O    0.003337  -0.004059  -0.000930  -0.002709   0.000002  -0.091238
    14  N    0.260327  -0.351678  -0.000758  -0.011746   0.008256   0.000783
    15  H   -0.043246   0.103895   0.000003   0.001448  -0.000097   0.000003
    16  C   -2.967635   0.206140  -0.000623   0.002053  -0.017611   0.000720
    17  O   -0.348284   0.088940   0.000001   0.000024  -0.000656   0.000002
    18  O   -0.296449   0.023864   0.000002  -0.000000   0.000515   0.000000
    19  H    0.000843   0.003412  -0.000167  -0.000030  -0.000000   0.179392
              13         14         15         16         17         18
     1  C    0.061850  -0.165412  -0.120091   0.247920   0.001435   0.005765
     2  C   -0.055666   0.256459   0.143809  -1.143970   0.000357   0.046873
     3  C   -0.022763   0.098427   0.037855  -0.503390   0.004858  -0.007662
     4  C   -0.313702  -0.033475  -0.004097  -0.047415   0.000603   0.001049
     5  C    0.465479   0.013517   0.000628   0.036802   0.001117   0.000096
     6  C   -0.228634  -0.033445  -0.090023  -0.110038  -0.022566  -0.003050
     7  C    0.003337   0.260327  -0.043246  -2.967635  -0.348284  -0.296449
     8  C   -0.004059  -0.351678   0.103895   0.206140   0.088940   0.023864
     9  H   -0.000930  -0.000758   0.000003  -0.000623   0.000001   0.000002
    10  H   -0.002709  -0.011746   0.001448   0.002053   0.000024  -0.000000
    11  H    0.000002   0.008256  -0.000097  -0.017611  -0.000656   0.000515
    12  O   -0.091238   0.000783   0.000003   0.000720   0.000002   0.000000
    13  O    9.023148  -0.000917  -0.000018   0.000153   0.000002   0.000001
    14  N   -0.000917   7.251901   0.326451  -0.177850  -0.011186   0.008237
    15  H   -0.000018   0.326451   0.387521  -0.074504   0.011292   0.000300
    16  C    0.000153  -0.177850  -0.074504   8.716485   0.451467   0.388830
    17  O    0.000002  -0.011186   0.011292   0.451467   8.780326  -0.197641
    18  O    0.000001   0.008237   0.000300   0.388830  -0.197641   8.806410
    19  H    0.078962  -0.000016  -0.000000   0.000037  -0.000000   0.000000
              19
     1  C   -0.015277
     2  C   -0.011267
     3  C    0.198805
     4  C   -0.062342
     5  C   -0.167720
     6  C    0.039770
     7  C    0.000843
     8  C    0.003412
     9  H   -0.000167
    10  H   -0.000030
    11  H   -0.000000
    12  O    0.179392
    13  O    0.078962
    14  N   -0.000016
    15  H   -0.000000
    16  C    0.000037
    17  O   -0.000000
    18  O    0.000000
    19  H    0.371627
 Mulliken charges:
               1
     1  C   -0.517968
     2  C    0.789143
     3  C   -0.368283
     4  C    0.053506
     5  C    0.274405
     6  C   -0.869190
     7  C   -0.466406
     8  C    0.516458
     9  H    0.133304
    10  H    0.121172
    11  H    0.136826
    12  O   -0.610836
    13  O   -0.912298
    14  N   -0.437875
    15  H    0.318871
    16  C    0.992430
    17  O   -0.760090
    18  O   -0.777140
    19  H    0.383972
 Sum of Mulliken charges =  -2.00000
 Mulliken charges with hydrogens summed into heavy atoms:
               1
     1  C   -0.517968
     2  C    0.789143
     3  C   -0.234979
     4  C    0.053506
     5  C    0.274405
     6  C   -0.748019
     7  C   -0.466406
     8  C    0.653284
    12  O   -0.226864
    13  O   -0.912298
    14  N   -0.119004
    16  C    0.992430
    17  O   -0.760090
    18  O   -0.777140
 Electronic spatial extent (au):  <R**2>=           3363.9714
 Charge=             -2.0000 electrons
 Dipole moment (field-independent basis, Debye):
    X=             -6.1660    Y=             -1.3448    Z=             -0.0005  Tot=              6.3110
 Quadrupole moment (field-independent basis, Debye-Ang):
   XX=           -228.6462   YY=            -99.9697   ZZ=            -88.8642
   XY=             10.6323   XZ=             -0.0007   YZ=             -0.0001
 Traceless Quadrupole moment (field-independent basis, Debye-Ang):
   XX=            -89.4861   YY=             39.1903   ZZ=             50.2958
   XY=             10.6323   XZ=             -0.0007   YZ=             -0.0001
 Octapole moment (field-independent basis, Debye-Ang**2):
  XXX=           -212.6950  YYY=             -3.8250  ZZZ=             -0.0003  XYY=              9.3625
  XXY=            -31.4972  XXZ=             -0.0034  XZZ=              2.4543  YZZ=              1.3090
  YYZ=              0.0008  XYZ=             -0.0030
 Hexadecapole moment (field-independent basis, Debye-Ang**3):
 XXXX=          -6194.2314 YYYY=           -698.1673 ZZZZ=           -108.2908 XXXY=            165.5816
 XXXZ=              0.0305 YYYX=             45.1746 YYYZ=              0.0195 ZZZX=              0.0320
 ZZZY=              0.0305 XXYY=          -1075.4417 XXZZ=           -659.8438 YYZZ=           -148.9621
 XXYZ=              0.0259 YYXZ=              0.0142 ZZXY=              7.7102
 N-N= 8.096456983815D+02 E-N=-3.288362578905D+03  KE= 6.954462592060D+02
 D1PCM: PCM CHGder 1st derivatives, ID1Alg=3 FixD1E=F DoIter=F DoCFld=F I1PDM=6.
 Calling FoFJK, ICntrl=  10005127 FMM=F ISym2X=0 I1Cent= 0 IOpClX= 0 NMat=1 NMatS=1 NMatT=0.
 ***** Axes restored to original set *****
 -------------------------------------------------------------------
 Center     Atomic                   Forces (Hartrees/Bohr)
 Number     Number              X              Y              Z
 -------------------------------------------------------------------
      1        6          -0.016900750    0.025932362   -0.000004279
      2        6           0.003764704   -0.016418472    0.000005363
      3        6          -0.000238815   -0.003894911    0.000010992
      4        6          -0.016814002   -0.022340820   -0.000006262
      5        6          -0.039145147    0.009251469   -0.000004919
      6        6           0.034851749    0.008681377    0.000007774
      7        6          -0.018834614    0.014555078   -0.000004438
      8        6          -0.012481840   -0.007170796   -0.000010422
      9        1           0.000497599    0.003099996   -0.000002530
     10        1           0.000118071   -0.004739394   -0.000001940
     11        1          -0.000901577    0.001353373   -0.000001563
     12        8           0.019586647    0.005761126    0.000001063
     13        8           0.036764972   -0.009834579    0.000001492
     14        7           0.010622465   -0.003727853   -0.000009500
     15        1           0.000458762    0.001111236   -0.000000382
     16        6           0.022012955    0.003195036    0.000070244
     17        8          -0.007648260   -0.006181732   -0.000026182
     18        8          -0.009582229    0.003833920   -0.000025812
     19        1          -0.006130691   -0.002466418    0.000001300
 -------------------------------------------------------------------
 Cartesian Forces:  Max     0.039145147 RMS     0.012204912

 GradGradGradGradGradGradGradGradGradGradGradGradGradGradGradGradGradGrad
 Berny optimization.
 FormGI is forming the generalized inverse of G from B-inverse, IUseBI=4.
 Internal  Forces:  Max     0.037404376 RMS     0.007067032
 Search for a local minimum.
 Step number   1 out of a maximum of  107
 All quantities printed in internal units (Hartrees-Bohrs-Radians)
 Mixed Optimization -- RFO/linear search
 Second derivative matrix not updated -- first step.
 ITU=  0
     Eigenvalues ---    0.00863   0.00863   0.01664   0.01680   0.01788
     Eigenvalues ---    0.01845   0.01906   0.01951   0.01979   0.02003
     Eigenvalues ---    0.02006   0.02044   0.02046   0.02124   0.02148
     Eigenvalues ---    0.02245   0.16000   0.16000   0.16000   0.16000
     Eigenvalues ---    0.16000   0.23055   0.23500   0.23840   0.24311
     Eigenvalues ---    0.25000   0.25000   0.25000   0.25000   0.25000
     Eigenvalues ---    0.25000   0.33159   0.35183   0.35206   0.35844
     Eigenvalues ---    0.36149   0.38118   0.39559   0.40588   0.43156
     Eigenvalues ---    0.45169   0.46268   0.46372   0.46822   0.49715
     Eigenvalues ---    0.49847   0.50259   0.50336   0.65677   0.77465
     Eigenvalues ---    0.78951
 RFO step:  Lambda=-1.15357601D-02 EMin= 8.62927597D-03
 Linear search not attempted -- first point.
 Iteration  1 RMS(Cart)=  0.03833946 RMS(Int)=  0.00095605
 Iteration  2 RMS(Cart)=  0.00088307 RMS(Int)=  0.00003600
 Iteration  3 RMS(Cart)=  0.00000043 RMS(Int)=  0.00003600
 Variable       Old X    -DE/DX   Delta X   Delta X   Delta X     New X
                                 (Linear)    (Quad)   (Total)
    R1        2.67059   0.01690   0.00000   0.03852   0.03850   2.70909
    R2        2.66304  -0.02744   0.00000  -0.06093  -0.06094   2.60210
    R3        2.59619  -0.00139   0.00000  -0.00240  -0.00247   2.59372
    R4        2.68437  -0.00261   0.00000  -0.00647  -0.00642   2.67795
    R5        2.70583  -0.01422   0.00000  -0.03342  -0.03338   2.67244
    R6        2.58417  -0.00557   0.00000  -0.01029  -0.01028   2.57389
    R7        2.05379  -0.00313   0.00000  -0.00860  -0.00860   2.04519
    R8        2.74496   0.01604   0.00000   0.04196   0.04192   2.78688
    R9        2.59528  -0.01368   0.00000  -0.02656  -0.02656   2.56872
   R10        2.64178   0.01695   0.00000   0.03643   0.03637   2.67815
   R11        2.46712  -0.03740   0.00000  -0.05597  -0.05597   2.41115
   R12        2.05342  -0.00473   0.00000  -0.01301  -0.01301   2.04042
   R13        2.60055   0.00723   0.00000   0.01316   0.01324   2.61379
   R14        2.61584  -0.01306   0.00000  -0.02748  -0.02747   2.58837
   R15        2.82073   0.00485   0.00000   0.01412   0.01412   2.83486
   R16        2.04326  -0.00157   0.00000  -0.00426  -0.00426   2.03900
   R17        1.86854   0.00137   0.00000   0.00269   0.00269   1.87123
   R18        1.90530   0.00120   0.00000   0.00253   0.00253   1.90783
   R19        2.39312  -0.00839   0.00000  -0.01067  -0.01067   2.38245
   R20        2.38486  -0.00857   0.00000  -0.01070  -0.01070   2.37416
    A1        2.14947  -0.00002   0.00000  -0.00255  -0.00248   2.14699
    A2        1.86939   0.00171   0.00000   0.01033   0.01021   1.87960
    A3        2.26432  -0.00169   0.00000  -0.00778  -0.00773   2.25659
    A4        2.07154   0.00795   0.00000   0.02747   0.02756   2.09910
    A5        1.86708  -0.00344   0.00000  -0.00897  -0.00902   1.85806
    A6        2.34457  -0.00451   0.00000  -0.01850  -0.01854   2.32603
    A7        2.06073  -0.00202   0.00000  -0.00779  -0.00773   2.05300
    A8        2.12047   0.00070   0.00000   0.00210   0.00207   2.12254
    A9        2.10198   0.00132   0.00000   0.00570   0.00567   2.10764
   A10        2.16481  -0.00790   0.00000  -0.02727  -0.02730   2.13751
   A11        2.14721  -0.00496   0.00000  -0.02042  -0.02040   2.12681
   A12        1.97117   0.01286   0.00000   0.04769   0.04770   2.01887
   A13        2.05177   0.00671   0.00000   0.02897   0.02887   2.08063
   A14        2.01837   0.00531   0.00000   0.01864   0.01870   2.03707
   A15        2.21305  -0.01202   0.00000  -0.04762  -0.04756   2.16548
   A16        2.06805  -0.00472   0.00000  -0.01883  -0.01891   2.04914
   A17        2.12134   0.00204   0.00000   0.00752   0.00756   2.12890
   A18        2.09379   0.00269   0.00000   0.01131   0.01136   2.10515
   A19        1.88857   0.00799   0.00000   0.02729   0.02739   1.91595
   A20        2.30154  -0.00431   0.00000  -0.01484  -0.01488   2.28666
   A21        2.09308  -0.00368   0.00000  -0.01246  -0.01250   2.08057
   A22        1.87791  -0.00139   0.00000  -0.00671  -0.00659   1.87132
   A23        2.21932   0.00028   0.00000   0.00095   0.00089   2.22021
   A24        2.18596   0.00111   0.00000   0.00576   0.00570   2.19166
   A25        1.75981   0.01208   0.00000   0.07041   0.07041   1.83022
   A26        1.92183  -0.00487   0.00000  -0.02194  -0.02198   1.89984
   A27        2.22482   0.00246   0.00000   0.01114   0.01116   2.23599
   A28        2.13653   0.00241   0.00000   0.01080   0.01082   2.14735
   A29        2.02596  -0.00363   0.00000  -0.01387  -0.01387   2.01209
   A30        2.05670  -0.00504   0.00000  -0.01927  -0.01927   2.03743
   A31        2.20053   0.00867   0.00000   0.03314   0.03314   2.23367
    D1       -0.00000   0.00000   0.00000  -0.00000  -0.00000  -0.00000
    D2       -3.14158  -0.00000   0.00000  -0.00002  -0.00002   3.14159
    D3       -3.14159  -0.00000   0.00000  -0.00002  -0.00002   3.14157
    D4        0.00002  -0.00000   0.00000  -0.00004  -0.00004  -0.00002
    D5       -0.00001  -0.00000   0.00000  -0.00005  -0.00005  -0.00006
    D6        3.14159   0.00000   0.00000   0.00001   0.00001  -3.14158
    D7        3.14158  -0.00000   0.00000  -0.00003  -0.00003   3.14155
    D8       -0.00001   0.00000   0.00000   0.00004   0.00004   0.00003
    D9        0.00005  -0.00000   0.00000  -0.00007  -0.00007  -0.00002
   D10        3.14155   0.00000   0.00000   0.00003   0.00003   3.14158
   D11       -3.14154  -0.00000   0.00000  -0.00009  -0.00009   3.14156
   D12       -0.00004   0.00000   0.00000   0.00001   0.00001  -0.00003
   D13        0.00001   0.00000   0.00000   0.00005   0.00005   0.00006
   D14       -3.14158  -0.00000   0.00000  -0.00001  -0.00001  -3.14159
   D15        3.14158   0.00000   0.00000   0.00007   0.00007  -3.14153
   D16       -0.00001   0.00000   0.00000   0.00000   0.00000  -0.00000
   D17       -0.00008   0.00000   0.00000   0.00013   0.00013   0.00005
   D18        3.14157   0.00000   0.00000   0.00002   0.00002   3.14159
   D19        3.14153   0.00000   0.00000   0.00011   0.00011  -3.14154
   D20       -0.00000   0.00000   0.00000   0.00000   0.00000  -0.00000
   D21       -0.00001  -0.00000   0.00000  -0.00005  -0.00005  -0.00006
   D22       -3.14159   0.00000   0.00000   0.00002   0.00002  -3.14157
   D23        3.14158   0.00000   0.00000   0.00001   0.00001  -3.14159
   D24       -0.00000   0.00000   0.00000   0.00009   0.00008   0.00008
   D25       -0.00001   0.00000   0.00000   0.00000   0.00000  -0.00001
   D26       -3.14157   0.00000   0.00000   0.00005   0.00005  -3.14151
   D27        3.14158  -0.00000   0.00000  -0.00007  -0.00007   3.14151
   D28        0.00002  -0.00000   0.00000  -0.00001  -0.00001   0.00001
   D29       -3.14158  -0.00000   0.00000  -0.00006  -0.00006   3.14155
   D30        0.00002   0.00000   0.00000   0.00001   0.00001   0.00003
   D31        0.00001   0.00000   0.00000   0.00005   0.00005   0.00006
   D32       -3.14158  -0.00000   0.00000  -0.00001  -0.00001   3.14159
   D33        3.14157   0.00000   0.00000  -0.00001  -0.00000   3.14156
   D34       -0.00003  -0.00000   0.00000  -0.00007  -0.00007  -0.00009
   D35        0.00011  -0.00000   0.00000  -0.00017  -0.00017  -0.00006
   D36       -3.14154  -0.00000   0.00000  -0.00006  -0.00007   3.14158
   D37       -3.14153  -0.00000   0.00000  -0.00008  -0.00009   3.14157
   D38        0.00001   0.00000   0.00000   0.00002   0.00002   0.00003
   D39       -0.00010   0.00000   0.00000   0.00015   0.00015   0.00005
   D40        3.14158   0.00000   0.00000   0.00006   0.00006  -3.14154
   D41        3.14153   0.00000   0.00000   0.00008   0.00008  -3.14157
   D42        0.00003   0.00000   0.00000  -0.00001  -0.00001   0.00002
   D43       -3.14129  -0.00003   0.00000  -0.00134  -0.00134   3.14056
   D44       -0.00013   0.00002   0.00000   0.00119   0.00119   0.00106
   D45        0.00025  -0.00002   0.00000  -0.00125  -0.00125  -0.00100
   D46        3.14141   0.00003   0.00000   0.00128   0.00128  -3.14049
         Item               Value     Threshold  Converged?
 Maximum Force            0.037404     0.000015     NO 
 RMS     Force            0.007067     0.000010     NO 
 Maximum Displacement     0.190970     0.000060     NO 
 RMS     Displacement     0.038536     0.000040     NO 
 Predicted change in Energy=-5.955726D-03
 GradGradGradGradGradGradGradGradGradGradGradGradGradGradGradGradGradGrad

                          Input orientation:                          
 ---------------------------------------------------------------------
 Center     Atomic      Atomic             Coordinates (Angstroms)
 Number     Number       Type             X           Y           Z
 ---------------------------------------------------------------------
      1          6           0       -0.108156    0.606535    0.000074
      2          6           0       -0.146312   -0.826545    0.000212
      3          6           0       -1.388798   -1.508034    0.000231
      4          6           0       -2.522913   -0.753746    0.000038
      5          6           0       -2.493124    0.720707   -0.000114
      6          6           0       -1.242425    1.387230   -0.000051
      7          6           0        1.996141   -0.132980    0.000295
      8          6           0        1.198790   -1.263183    0.000311
      9          1           0       -1.442955   -2.588944    0.000335
     10          1           0       -1.194158    2.465893   -0.000161
     11          1           0        1.554070   -2.282007    0.000429
     12          8           0       -3.759676   -1.317776    0.000062
     13          8           0       -3.621027    1.317216   -0.000199
     14          7           0        1.210095    0.988726    0.000114
     15          1           0        1.587386    1.925160    0.000031
     16          6           0        3.488570    0.018960    0.000399
     17          8           0        3.908817    1.207596   -0.000828
     18          8           0        4.164512   -1.040060   -0.000668
     19          1           0       -4.387920   -0.552380   -0.000059
 ---------------------------------------------------------------------
                    Distance matrix (angstroms):
                    1          2          3          4          5
     1  C    0.000000
     2  C    1.433588   0.000000
     3  C    2.472133   1.417108   0.000000
     4  C    2.771537   2.377715   1.362045   0.000000
     5  C    2.387699   2.810963   2.487332   1.474753   0.000000
     6  C    1.376972   2.470276   2.898961   2.494680   1.417216
     7  C    2.230459   2.251919   3.653571   4.561491   4.569713
     8  C    2.281217   1.414197   2.599146   3.756407   4.191187
     9  H    3.463058   2.187997   1.082266   2.129380   3.472268
    10  H    2.153280   3.455160   3.978690   3.483054   2.175543
    11  H    3.332666   2.238229   3.042943   4.354006   5.039451
    12  O    4.127538   3.646602   2.378500   1.359306   2.399910
    13  O    3.584039   4.082812   3.600678   2.344086   1.275927
    14  N    1.372537   2.266066   3.603894   4.119655   3.712906
    15  H    2.147937   3.252321   4.543620   4.906230   4.254558
    16  C    3.644404   3.731923   5.110814   6.060940   6.022716
    17  O    4.061692   4.536717   5.953097   6.724136   6.420429
    18  O    4.578970   4.316109   5.572993   6.693551   6.886539
    19  H    4.433899   4.250459   3.147699   1.875846   2.282761
                    6          7          8          9         10
     6  C    0.000000
     7  C    3.577618   0.000000
     8  C    3.603362   1.383159   0.000000
     9  H    3.981227   4.226007   2.955750   0.000000
    10  H    1.079742   4.114869   4.430825   5.060956   0.000000
    11  H    4.613424   2.194024   1.078993   3.012701   5.485919
    12  O    3.695079   5.876493   4.958767   2.642549   4.571437
    13  O    2.379632   5.801349   5.467092   4.472369   2.684987
    14  N    2.484685   1.369705   2.251938   4.454032   2.821783
    15  H    2.880486   2.098338   3.211937   5.436920   2.833616
    16  C    4.924883   1.500143   2.624306   5.578628   5.283505
    17  O    5.154373   2.335696   3.667287   6.561644   5.255822
    18  O    5.926779   2.350453   2.974104   5.817450   6.403675
    19  H    3.695432   6.397822   5.631746   3.580560   4.394324
                   11         12         13         14         15
    11  H    0.000000
    12  O    5.400522   0.000000
    13  O    6.303652   2.638637   0.000000
    14  N    3.288771   5.478922   4.842278   0.000000
    15  H    4.207299   6.253616   5.243774   1.009582   0.000000
    16  C    3.006116   7.370477   7.227160   2.476266   2.692230
    17  O    4.209769   8.073617   7.530642   2.707582   2.429803
    18  O    2.890820   7.929054   8.134579   3.583930   3.928627
    19  H    6.188606   0.990213   2.020770   5.806271   6.468576
                   16         17         18         19
    16  C    0.000000
    17  O    1.260740   0.000000
    18  O    1.256352   2.262153   0.000000
    19  H    7.897184   8.481353   8.566325   0.000000
 Stoichiometry    C9H5NO4(2-)
 Framework group  C1[X(C9H5NO4)]
 Deg. of freedom    51
 Full point group                 C1      NOp   1
 Largest Abelian subgroup         C1      NOp   1
 Largest concise Abelian subgroup C1      NOp   1
                         Standard orientation:                         
 ---------------------------------------------------------------------
 Center     Atomic      Atomic             Coordinates (Angstroms)
 Number     Number       Type             X           Y           Z
 ---------------------------------------------------------------------
      1          6           0       -0.127551    0.641954    0.000108
      2          6           0       -0.186645   -0.790415    0.000246
      3          6           0       -1.438955   -1.453675    0.000265
      4          6           0       -2.561928   -0.682896    0.000072
      5          6           0       -2.510597    0.790964   -0.000080
      6          6           0       -1.250292    1.439140   -0.000017
      7          6           0        1.965714   -0.128230    0.000329
      8          6           0        1.151934   -1.246662    0.000345
      9          1           0       -1.508901   -2.533679    0.000369
     10          1           0       -1.186269    2.516983   -0.000127
     11          1           0        1.492289   -2.270568    0.000463
     12          8           0       -3.806801   -1.228794    0.000096
     13          8           0       -3.629663    1.403890   -0.000165
     14          7           0        1.196144    1.004842    0.000148
     15          1           0        1.587077    1.935663    0.000065
     16          6           0        3.460204    0.001885    0.000433
     17          8           0        3.897775    1.184254   -0.000794
     18          8           0        4.120600   -1.066898   -0.000634
     19          1           0       -4.423793   -0.454299   -0.000025
 ---------------------------------------------------------------------
 Rotational constants (GHZ):           2.2255142           0.3584585           0.3087318
 Standard basis: 6-31+G(d,p) (6D, 7F)
 There are   291 symmetry adapted cartesian basis functions of A   symmetry.
 There are   291 symmetry adapted basis functions of A   symmetry.
   291 basis functions,   483 primitive gaussians,   291 cartesian basis functions
    50 alpha electrons       50 beta electrons
       nuclear repulsion energy       812.0813261710 Hartrees.
 NAtoms=   19 NActive=   19 NUniq=   19 SFac= 1.00D+00 NAtFMM=   60 NAOKFM=F Big=F
 Integral buffers will be    131072 words long.
 Raffenetti 1 integral format.
 Two-electron integral symmetry is turned on.
 Force PCM accuracy= 1.00D-12.
 ------------------------------------------------------------------------------
 Polarizable Continuum Model (PCM)
 =================================
 Model                : PCM.
 Atomic radii         : UFF (Universal Force Field).
 Polarization charges : Total charges.
 Charge compensation  : None.
 Solution method      : On-the-fly selection.
 Cavity type          : Scaled VdW (van der Waals Surface) (Alpha=1.100).
 Cavity algorithm     : GePol (No added spheres)
                        Default sphere list used, NSphG=   19.
                        Lebedev-Laikov grids with approx.  5.0 points / Ang**2.
                        Smoothing algorithm: York/Karplus (Gamma=1.0000).
                        Polarization charges: spherical gaussians, with
                                              point-specific exponents (IZeta= 3).
                        Self-potential: point-specific (ISelfS= 7).
                        Self-field    : sphere-specific E.n sum rule (ISelfD= 2).
 1st derivatives      : Analytical E(r).r(x)/FMM algorithm (CHGder, D1EAlg=3).
                        Cavity 1st derivative terms included.
 Solvent              : Water, Eps=  78.355300 Eps(inf)=   1.777849
 ------------------------------------------------------------------------------
 Spheres list:
 ISph  on   Nord     Re0    Alpha      Xe            Ye            Ze
    1   C      1    1.9255  1.100     -0.127551      0.641954      0.000108
    2   C      2    1.9255  1.100     -0.186645     -0.790415      0.000246
    3   C      3    1.9255  1.100     -1.438955     -1.453675      0.000265
    4   C      4    1.9255  1.100     -2.561928     -0.682896      0.000072
    5   C      5    1.9255  1.100     -2.510597      0.790964     -0.000080
    6   C      6    1.9255  1.100     -1.250292      1.439140     -0.000017
    7   C      7    1.9255  1.100      1.965714     -0.128230      0.000329
    8   C      8    1.9255  1.100      1.151934     -1.246662      0.000345
    9   H      9    1.4430  1.100     -1.508901     -2.533679      0.000369
   10   H     10    1.4430  1.100     -1.186269      2.516983     -0.000127
   11   H     11    1.4430  1.100      1.492289     -2.270568      0.000463
   12   O     12    1.7500  1.100     -3.806801     -1.228794      0.000096
   13   O     13    1.7500  1.100     -3.629663      1.403890     -0.000165
   14   N     14    1.8300  1.100      1.196144      1.004842      0.000148
   15   H     15    1.4430  1.100      1.587077      1.935663      0.000065
   16   C     16    1.9255  1.100      3.460204      0.001885      0.000433
   17   O     17    1.7500  1.100      3.897775      1.184254     -0.000794
   18   O     18    1.7500  1.100      4.120600     -1.066898     -0.000634
   19   H     19    1.4430  1.100     -4.423793     -0.454299     -0.000025
 ------------------------------------------------------------------------------
 One-electron integrals computed using PRISM.
 NBasis=   291 RedAO= T EigKep=  1.67D-06  NBF=   291
 NBsUse=   290 1.00D-06 EigRej=  8.16D-07 NBFU=   290
 Initial guess from the checkpoint file:  "K2DAexc.chk"
 B after Tr=    -0.000000    0.000000    0.000000
         Rot=    0.999996    0.000007   -0.000011    0.002954 Ang=   0.34 deg.
 ExpMin= 4.38D-02 ExpMax= 5.48D+03 ExpMxC= 8.25D+02 IAcc=3 IRadAn=         5 AccDes= 0.00D+00
 Harris functional with IExCor=20419 and IRadAn=       5 diagonalized for initial guess.
 HarFok:  IExCor=20419 AccDes= 0.00D+00 IRadAn=         5 IDoV= 1 UseB2=F ITyADJ=14
 ICtDFT=  3500011 ScaDFX=  1.000000  1.000000  1.000000  1.000000
 FoFCou: FMM=F IPFlag=           0 FMFlag=      100000 FMFlg1=           0
         NFxFlg=           0 DoJE=T BraDBF=F KetDBF=T FulRan=T
         wScrn=  0.000000 ICntrl=       500 IOpCl=  0 I1Cent=   200000004 NGrid=           0
         NMat0=    1 NMatS0=      1 NMatT0=    0 NMatD0=    1 NMtDS0=    0 NMtDT0=    0
 Petite list used in FoFCou.
 Requested convergence on RMS density matrix=1.00D-08 within 128 cycles.
 Requested convergence on MAX density matrix=1.00D-06.
 Requested convergence on             energy=1.00D-06.
 No special actions if energy rises.
 Inv3:  Mode=1 IEnd=     9709203.
 Iteration    1 A*A^-1 deviation from unit magnitude is 6.55D-15 for    219.
 Iteration    1 A*A^-1 deviation from orthogonality  is 4.05D-15 for   1775   1240.
 Iteration    1 A^-1*A deviation from unit magnitude is 6.11D-15 for    488.
 Iteration    1 A^-1*A deviation from orthogonality  is 2.94D-14 for   1441   1426.
 Error on total polarization charges =  0.03094
 SCF Done:  E(RCAM-B3LYP) =  -701.658709146     A.U. after   15 cycles
            NFock= 15  Conv=0.39D-08     -V/T= 2.0087
 DoSCS=F DFT=T ScalE2(SS,OS)=  1.000000  1.000000
 ExpMin= 4.38D-02 ExpMax= 5.48D+03 ExpMxC= 8.25D+02 IAcc=3 IRadAn=         5 AccDes= 0.00D+00
 HarFok:  IExCor=  205 AccDes= 0.00D+00 IRadAn=         5 IDoV=-2 UseB2=F ITyADJ=14
 ICtDFT= 12500011 ScaDFX=  1.000000  1.000000  1.000000  1.000000
 Range of M.O.s used for correlation:    15   290
 NBasis=   291 NAE=    50 NBE=    50 NFC=    14 NFV=     0
 NROrb=    276 NOA=    36 NOB=    36 NVA=   240 NVB=   240

 **** Warning!!: The largest alpha MO coefficient is  0.19624072D+03

 NEqPCM:  Using equilibrium solvation (IEInf=0, Eps=  78.3553, EpsInf=   1.7778)
 Orbital symmetries:
       Occupied  (A) (A) (A) (A) (A) (A) (A) (A) (A) (A) (A) (A)
                 (A) (A) (A) (A) (A) (A) (A) (A) (A) (A) (A) (A)
                 (A) (A) (A) (A) (A) (A) (A) (A) (A) (A) (A) (A)
                 (A) (A) (A) (A) (A) (A) (A) (A) (A) (A) (A) (A)
                 (A) (A)
       Virtual   (A) (A) (A) (A) (A) (A) (A) (A) (A) (A) (A) (A)
                 (A) (A) (A) (A) (A) (A) (A) (A) (A) (A) (A) (A)
                 (A) (A) (A) (A) (A) (A) (A) (A) (A) (A) (A) (A)
                 (A) (A) (A) (A) (A) (A) (A) (A) (A) (A) (A) (A)
                 (A) (A) (A) (A) (A) (A) (A) (A) (A) (A) (A) (A)
                 (A) (A) (A) (A) (A) (A) (A) (A) (A) (A) (A) (A)
                 (A) (A) (A) (A) (A) (A) (A) (A) (A) (A) (A) (A)
                 (A) (A) (A) (A) (A) (A) (A) (A) (A) (A) (A) (A)
                 (A) (A) (A) (A) (A) (A) (A) (A) (A) (A) (A) (A)
                 (A) (A) (A) (A) (A) (A) (A) (A) (A) (A) (A) (A)
                 (A) (A) (A) (A) (A) (A) (A) (A) (A) (A) (A) (A)
                 (A) (A) (A) (A) (A) (A) (A) (A) (A) (A) (A) (A)
                 (A) (A) (A) (A) (A) (A) (A) (A) (A) (A) (A) (A)
                 (A) (A) (A) (A) (A) (A) (A) (A) (A) (A) (A) (A)
                 (A) (A) (A) (A) (A) (A) (A) (A) (A) (A) (A) (A)
                 (A) (A) (A) (A) (A) (A) (A) (A) (A) (A) (A) (A)
                 (A) (A) (A) (A) (A) (A) (A) (A) (A) (A) (A) (A)
                 (A) (A) (A) (A) (A) (A) (A) (A) (A) (A) (A) (A)
                 (A) (A) (A) (A) (A) (A) (A) (A) (A) (A) (A) (A)
                 (A) (A) (A) (A) (A) (A) (A) (A) (A) (A) (A) (A)
 Generating guess from densities on rwf.
 Convergence on wavefunction:    0.000001000000000
 Iteration     1 Dimension    10 NMult     0 NNew     10
 CISAX will form    10 AO SS matrices at one time.
 Iteration     2 Dimension    20 NMult    10 NNew     10
 New state      4 was old state      5
 New state      5 was old state      4
 Iteration     3 Dimension    30 NMult    20 NNew     10
 New state      4 was old state      5
 New state      5 was old state      4
 Iteration     4 Dimension    40 NMult    30 NNew     10
 Iteration     5 Dimension    50 NMult    40 NNew     10
 Iteration     6 Dimension    60 NMult    50 NNew     10
 Iteration     7 Dimension    70 NMult    60 NNew     10
 Iteration     8 Dimension    80 NMult    70 NNew     10
 Iteration     9 Dimension    90 NMult    80 NNew     10
 Iteration    10 Dimension   100 NMult    90 NNew     10
 Iteration    11 Dimension   106 NMult   100 NNew      6
 Iteration    12 Dimension   110 NMult   106 NNew      4
 Iteration    13 Dimension   114 NMult   110 NNew      4
 ***********************************************************************
 Excited states from <AA,BB:AA,BB> singles matrix:
 ***********************************************************************
 
 Ground to excited state transition densities written to RWF  633
 Ground to excited state transition electric dipole moments (Au):
       state          X           Y           Z        Dip. S.      Osc.
         1         2.9444      0.2707      0.0023      8.7425      0.7999
         2         0.0280      0.0026     -0.2056      0.0431      0.0040
         3         0.0006      0.0006     -0.2732      0.0747      0.0077
         4         0.9918     -0.1807     -0.0006      1.0164      0.1114
         5        -0.0083      0.0012      0.0118      0.0002      0.0000
 Ground to excited state transition velocity dipole moments (Au):
       state          X           Y           Z        Dip. S.      Osc.
         1        -0.3919     -0.0378     -0.0001      0.1550      0.7529
         2        -0.0037     -0.0004      0.0080      0.0001      0.0004
         3        -0.0001     -0.0001      0.0482      0.0023      0.0100
         4        -0.1493      0.0215      0.0001      0.0228      0.0923
         5         0.0013     -0.0001     -0.0062      0.0000      0.0002
 Ground to excited state transition magnetic dipole moments (Au):
       state          X           Y           Z
         1         0.0001      0.0030     -0.3857
         2         0.0079     -0.3772     -0.0037
         3        -0.0239      0.5035     -0.0002
         4        -0.0001      0.0010     -0.1563
         5        -0.0475      0.0239      0.0013
 Ground to excited state transition velocity quadrupole moments (Au):
       state          XX          YY          ZZ          XY          XZ          YZ
         1         0.3135      0.0738     -0.0475     -0.1384     -0.0018     -0.0001
         2         0.0033      0.0007     -0.0004     -0.0013      0.2159      0.0067
         3         0.0029     -0.0003     -0.0001      0.0004     -0.3027      0.0231
         4        -1.3745      0.2135      0.0967     -0.3959     -0.0009      0.0002
         5         0.0105     -0.0017     -0.0008      0.0032     -0.0192      0.0018
 <0|del|b> * <b|rxdel|0> + <0|del|b> * <b|delr+rdel|0>
 Rotatory Strengths (R) in cgs (10**-40 erg-esu-cm/Gauss)
       state          XX          YY          ZZ    R(velocity)    E-M Angle
[...]
 00347,-0.00806195,0.00035759,-0.00000298,-0.00049255,-0.02962167,0.000
 00115,-0.17571825,-0.05029876,0.00000536,0.63766881,0.13449383,-0.2169
 1137,-0.00004868,0.03579896,-0.03281135,-0.00001053,-0.01119204,0.0186
 0587,0.00000988,-0.02061631,-0.04109073,-0.00001108,-0.07343041,-0.133
 80949,-0.00001135,-0.07641058,0.72136605,0.00005169,-0.00004789,-0.045
 42019,0.00000263,-0.00000624,0.00454522,-0.00000200,0.00000632,-0.0127
 9667,-0.00000191,-0.00001117,0.01734997,0.00000127,-0.00001046,-0.0286
 8416,-0.00007079,0.00013492,0.06414179,-0.04113711,-0.00258421,0.00000
 873,-0.05047120,0.00650612,0.00001324,0.01060931,-0.04298478,-0.000034
 60,-0.02078811,0.04909550,0.00002997,-0.00370013,-0.04755189,0.0000059
 8,-0.00274907,0.03945789,-0.00000967,0.68978742,0.04240245,0.03050770,
 0.00000073,-0.05262502,0.00845142,0.00000639,0.01535434,-0.01903832,-0
 .00000893,-0.01832423,-0.00212219,0.00000210,0.00131826,0.00752653,0.0
 0000399,-0.00502386,0.00178987,-0.00000073,0.00924607,0.57162659,0.000
 01098,0.00000493,0.00790230,-0.00000560,-0.00000154,0.01310169,-0.0000
 0063,0.00000677,-0.01106805,0.00000041,-0.00001414,0.00983541,0.000000
 93,0.00001166,0.00889923,-0.00000239,-0.00000372,-0.00981521,-0.000060
 10,0.00009046,0.07741682,-0.02726265,0.03027603,0.00000547,-0.29212982
 ,0.08008736,0.00003121,-0.05474287,0.02356199,0.00001917,0.02700140,-0
 .01439145,-0.00001320,0.00492394,0.00343411,-0.00000586,0.00325675,-0.
 02088243,0.00000386,-0.13793515,-0.05522020,0.00000215,0.58083779,0.01
 998408,-0.02516759,-0.00000784,0.07487810,-0.15059846,-0.00002665,-0.0
 2079654,0.04354478,0.00001427,0.00952512,-0.02522098,-0.00001011,0.003
 41955,0.02351317,0.00000091,-0.00831905,-0.02336032,-0.00000111,-0.050
 60057,-0.21558226,-0.00002901,-0.10985184,0.76066197,0.00000630,-0.000
 00832,0.00692930,0.00003477,-0.00002407,-0.05782435,0.00000346,-0.0000
 0257,0.02202399,-0.00000281,0.00000563,-0.00698993,0.00000017,-0.00000
 284,-0.00842815,0.00000089,-0.00000228,0.01032936,0.00000454,-0.000028
 48,-0.03065079,-0.00006406,0.00013791,0.08002509,-0.00511453,-0.000184
 65,0.00000052,0.00440482,-0.02755778,-0.00000499,-0.05920988,-0.016466
 38,0.00000256,0.00661384,0.02611436,0.00000307,-0.00454760,-0.00057152
 ,0.00000038,0.00017864,-0.00049180,0.00000020,0.00069310,-0.00044954,-
 0.00000002,0.00162888,0.00058955,-0.00000035,0.05366038,-0.00187366,0.
 00113718,-0.00000011,0.00242749,-0.00875812,-0.00000166,-0.01547642,-0
 .34479129,-0.00005603,-0.00497809,-0.01371805,-0.00000176,0.00140946,0
 .00152822,-0.00000004,0.00042611,0.00017110,-0.00000015,-0.00017810,0.
 00072458,0.00000014,-0.00043021,0.00068333,0.00000026,0.01838519,0.364
 70103,-0.00000038,0.00000023,0.00306862,0.00000035,-0.00000045,-0.0000
 0881,0.00000174,-0.00005254,-0.01217722,-0.00000097,-0.00000624,-0.002
 02488,0.00000112,-0.00000011,0.00009975,0.00000078,-0.00000107,0.00234
 838,0.00000518,0.00000117,0.00151154,-0.00000222,-0.00000135,-0.002770
 29,-0.00000147,0.00005949,0.01112195,0.00626915,0.02713485,0.00000529,
 -0.00433456,0.00066256,0.00000118,-0.00036350,0.00029623,0.00000037,-0
 .00475020,-0.00008729,0.,0.00357535,-0.02751309,-0.00000615,-0.0575333
 7,-0.00571429,0.00000300,0.00036007,0.00050014,0.00000015,0.00015041,0
 .00120310,0.00000013,0.00018008,0.00000791,-0.00000014,0.05153078,-0.0
 0433138,-0.01110242,-0.00000266,0.00199430,0.00103441,-0.00000136,0.00
 002522,0.00052536,-0.00000096,-0.00194425,0.00023595,0.00000114,0.0047
 4880,-0.01035147,-0.00000119,-0.00631935,-0.34767956,-0.00006504,0.001
 02284,-0.00051557,-0.00000092,0.00005427,-0.00108934,0.00000055,-0.000
 03124,-0.00017246,0.00000029,0.00519610,0.36598810,-0.00000204,-0.0000
 0461,0.00403614,0.00000234,-0.00000193,0.00725225,0.00000002,-0.000000
 46,0.00266225,-0.00000004,0.00000083,-0.00265630,0.00000069,0.00000124
 ,-0.00299089,0.00000300,-0.00006577,-0.01851564,0.00000419,0.00000031,
 0.00165827,-0.00000182,-0.00000127,-0.00181850,-0.00000015,0.00000010,
 -0.00100406,-0.00000294,0.00006913,0.01423285,-0.00578130,0.00146466,0
 .00000123,-0.00089053,0.02561902,0.00000515,0.00177189,0.00042636,-0.0
 0000021,0.00017369,-0.00101286,-0.00000033,0.00049104,0.00111334,0.000
 00018,0.00054094,0.00075772,0.00000016,0.01316299,-0.01576787,-0.00000
 472,-0.08886220,0.09328077,0.00002412,-0.00019926,-0.00049656,-0.00000
 007,-0.00038752,0.00022924,0.,0.08180972,-0.00051308,0.00001442,-0.000
 00124,-0.00157481,-0.00053875,-0.00000030,-0.00008889,0.00035462,0.000
 00096,0.00003119,-0.00004409,-0.00000022,-0.00056996,-0.00023139,-0.00
 000026,0.00050348,-0.00021683,0.00000021,0.01129037,-0.01139059,-0.000
 00250,0.09148275,-0.32695603,-0.00006703,0.00040581,-0.00005800,-0.000
 00018,0.00009083,-0.00001020,0.00000008,-0.10229340,0.34083637,0.00000
 089,-0.00000129,0.00621657,-0.00000062,-0.00000243,0.00162697,-0.00000
 045,0.00000117,-0.00372561,0.00000018,-0.00000089,0.00028795,-0.000000
 09,0.00000063,0.00103792,-0.00000026,-0.00000023,-0.00070299,0.0000001
 7,0.00000030,-0.00354323,0.00002405,-0.00006801,-0.02132139,0.00000013
 ,0.00000011,0.00041801,0.,0.00000007,-0.00060637,-0.00002555,0.0000715
 7,0.01638365,0.00518580,-0.00957743,-0.00000092,0.01255220,0.01433139,
 0.00000134,-0.05095454,-0.02221530,0.00000165,-0.25010641,-0.08728808,
 0.00000269,-0.03716843,-0.02481755,-0.00000645,0.00237573,0.00341155,0
 .00000241,-0.00268532,0.01422800,0.00000453,-0.01167900,-0.00326054,-0
 .00000090,0.00303001,-0.00040518,-0.00000103,-0.00103793,-0.00039863,-
 0.00000005,0.00013754,0.00023009,0.00000020,0.50412420,0.00343653,-0.0
 0188021,0.00000076,0.00459023,-0.00354604,-0.00000231,0.02166475,0.016
 97314,0.00000298,-0.04954996,-0.13874936,-0.00001986,-0.04344088,-0.03
 462236,-0.00000709,0.00216034,-0.00187611,0.00000003,-0.00473563,0.002
 08886,0.00000235,-0.00030924,0.00245297,-0.00000081,-0.00075095,0.0013
 4072,0.00000067,-0.00193962,-0.00084998,-0.00000041,0.00008924,0.00009
 001,0.00000017,-0.10176955,0.47624466,0.00000151,-0.00000017,-0.002853
 61,-0.00000160,-0.00000273,0.00439602,0.00001093,0.00000714,-0.0047010
 6,0.00000769,-0.00001890,-0.02035745,-0.00000573,-0.00000377,0.0124242
 9,-0.00000148,0.00000008,-0.00079164,-0.00000643,-0.00000132,-0.002521
 67,0.00000363,0.00000212,0.00183193,-0.00000039,0.00000054,-0.00117448
 ,0.00000009,-0.00000079,0.00261641,0.00000001,0.00000011,-0.00027322,-
 0.00006181,0.00010070,0.02517863,-0.00276147,-0.00506777,-0.00000089,0
 .00918016,-0.00204393,0.00000014,-0.00421850,-0.00293164,0.00000547,-0
 .02274613,0.02952548,-0.00000140,-0.36002483,0.15701621,0.00005340,-0.
 06033694,0.02360192,0.00001142,-0.00803546,-0.00018641,0.00000369,-0.0
 0814572,0.00345115,-0.00000246,-0.00076165,0.00125109,-0.00000037,0.00
 423221,-0.00003087,-0.00000088,-0.00002598,0.00027825,0.00000047,0.018
 87451,-0.00987885,-0.00000085,0.43042924,-0.00226966,0.00060321,-0.000
 00067,-0.00831919,-0.00406002,-0.00000079,0.00030023,-0.00075953,-0.00
 000285,0.04437630,-0.05327799,-0.00001130,0.15793999,-0.16997869,-0.00
 003519,-0.00655507,0.01501451,0.00000147,0.01168999,-0.00213659,-0.000
 00358,0.00387351,-0.00587650,0.00000131,0.00238674,-0.00144441,-0.0000
 0068,0.00176751,0.00250827,0.00000049,-0.00027740,0.00002120,-0.000000
 29,0.01120879,-0.00745947,-0.00000261,-0.20878049,0.21088621,-0.000000
 18,-0.00000027,0.00222700,-0.00000285,0.00000082,-0.00157571,-0.000001
 97,0.00000288,-0.00446765,0.00001212,-0.00002048,0.02283808,0.00005211
 ,-0.00003249,-0.03312813,0.00000452,-0.00000011,0.00219524,-0.00000348
 ,-0.00000152,-0.00366800,0.00000392,0.00000006,0.00359999,0.00000079,-
 0.00000070,0.00217750,0.00000002,0.00000019,0.00021351,-0.00000003,0.0
 0000004,-0.00016338,0.00000209,0.00000085,-0.00535267,-0.00006801,0.00
 004883,0.01921347,-0.27402754,-0.04275638,0.00000982,-0.03546949,-0.04
 438611,-0.00000595,0.00644705,0.00446450,0.00000376,-0.00493180,-0.013
 47700,-0.00000397,0.01155616,0.02349783,0.00000087,-0.05404417,-0.0104
 3050,0.00000551,-0.18035188,0.06324973,0.00002869,0.02449281,-0.000022
 15,-0.00000281,-0.00018783,0.00013195,-0.00000062,0.00235755,-0.000709
 14,-0.00000104,-0.00341184,-0.00190639,0.00000032,0.00079677,-0.000672
 08,0.00000020,0.00018296,-0.00551044,0.,0.66402624,-0.03775922,-0.1716
 5107,-0.00001732,-0.02089513,-0.02930633,-0.00000548,0.00390485,-0.015
 38474,-0.00000919,0.00347106,0.02480018,0.00001111,-0.00346961,-0.0327
 2864,-0.00000452,0.01918411,0.04272853,-0.00000061,0.06192091,-0.22869
 708,-0.00004474,-0.01143396,-0.06325273,-0.00001121,-0.00145485,-0.001
 36129,0.00000094,-0.00090792,0.00181253,0.00000240,-0.00340344,-0.0029
 0242,-0.00000095,-0.01378275,-0.00426439,-0.00000158,0.00206444,0.0069
 4533,0.00000017,0.11996797,0.88079043,0.00001458,-0.00001912,-0.048125
 04,0.00000019,-0.00000374,0.00758274,0.00000360,-0.00000833,0.00896306
 ,-0.00000138,0.00001470,-0.00807012,-0.00000139,-0.00001578,0.00191143
 ,0.00000995,0.00000915,0.01661803,0.00002854,-0.00004384,-0.02434044,-
 0.00000510,-0.00001116,0.00036511,-0.00000021,-0.00000042,-0.00065652,
 -0.00000086,0.00000171,-0.00489465,0.00000007,-0.00000102,0.00353582,-
 0.00000462,-0.00000231,0.00216426,-0.00000152,0.00000375,0.00062301,-0
 .00003749,0.00013455,0.04030182,-0.00100925,-0.02574098,-0.00000447,-0
 .00690052,-0.00054106,0.00000066,0.00102613,-0.00093997,-0.00000003,-0
 .00020140,-0.00108988,-0.00000044,-0.00020520,0.00132957,0.00000024,0.
 00224299,-0.00047508,-0.00000037,0.01723597,0.01359133,-0.00000040,-0.
 00118998,0.00465102,0.00000130,-0.00035325,-0.00009445,-0.00000005,-0.
 00050575,0.00062968,0.00000020,0.00095353,0.00083439,0.00000024,0.0008
 7254,0.00035649,0.00000007,0.00029751,-0.00032846,-0.00000010,-0.12103
 640,-0.12972165,-0.00000950,0.10597490,-0.00130912,0.00410409,0.000001
 82,0.00017165,0.00132316,-0.00000003,-0.00011050,0.00085336,0.00000042
 ,-0.00020853,-0.00165019,-0.00000090,-0.00041794,0.00134864,0.00000010
 ,0.00131569,-0.00040682,0.00000033,-0.01021888,-0.01836307,-0.00000097
 ,0.00412643,-0.00192927,-0.00000123,0.00001076,0.00016679,-0.00000007,
 -0.00030001,-0.00040470,-0.00000010,-0.00072539,-0.00032622,-0.0000002
 7,0.00130902,0.00051812,0.00000018,0.00050216,-0.00041762,-0.00000002,
 -0.13027526,-0.41596532,-0.00005574,0.13945476,0.43114550,-0.00000195,
 0.00000347,-0.00675349,0.00000044,-0.00000014,0.00222859,-0.00000032,0
 .00000043,0.00070242,0.00000016,-0.00000101,0.00036584,-0.00000007,0.0
 0000074,0.00032137,0.00000014,-0.00000023,-0.00152208,-0.00000407,-0.0
 0000454,-0.00604618,0.00000141,-0.00000133,0.00275634,0.00000001,0.000
 00007,-0.00011325,0.00000002,-0.00000021,0.00011009,-0.00000012,-0.000
 00042,0.00142718,0.00000045,0.00000020,-0.00006548,0.00000019,-0.00000
 019,-0.00024626,-0.00000859,-0.00005317,0.00080905,0.00001344,0.000055
 53,0.00867270,-0.02110646,0.02509150,0.00000261,-0.00530668,-0.0210135
 7,-0.00001021,-0.00990732,0.04859933,0.00003529,0.01646114,-0.05723403
 ,-0.00003104,-0.00067966,0.05586062,-0.00000332,0.00416804,-0.04344868
 ,0.00000784,-0.17227710,-0.00056831,0.00001655,-0.02658197,-0.04063708
 ,-0.00000878,-0.00045823,0.00061501,-0.00000509,-0.00034686,-0.0013196
 0,-0.00000412,-0.00126574,0.00187941,0.00000079,0.00863321,0.00751777,
 0.00000645,0.01407465,-0.01556433,0.00000207,-0.02587595,0.03283216,0.
 00000617,0.00031461,-0.00171616,-0.00000037,0.54244638,0.00037092,-0.0
 0191385,-0.00000121,-0.00308805,-0.00718445,-0.00000216,-0.00221501,0.
 00398499,0.00000419,0.00057198,-0.00617335,-0.00000344,0.00017996,0.00
 488755,0.00000021,0.00235564,-0.00326647,0.00000106,-0.02343306,-0.085
 77183,-0.00000023,-0.01829627,0.00371362,0.00000061,-0.00006680,0.0001
 0486,-0.00000043,-0.00004737,-0.00013817,-0.00000043,0.00062257,-0.001
 21423,0.,0.00192276,0.00114592,0.00000055,0.00083511,-0.00103289,0.,0.
 02549079,0.00824276,-0.00000187,0.00344553,-0.00250622,-0.00000052,-0.
 03355921,0.74965590,0.00000148,-0.00000273,0.00036712,0.00000009,0.000
 00046,0.00181072,-0.00000101,-0.00000163,-0.00294363,-0.00000036,0.000
 00081,0.00110844,-0.00000012,-0.00000102,0.00045190,-0.00000058,0.0000
 0268,-0.00164349,0.00000447,-0.00000187,-0.06968263,-0.00000016,0.0000
 0285,0.00703008,-0.00000003,0.00000001,0.00029877,0.,-0.00000018,0.000
 49658,0.00000012,-0.00000007,-0.00130292,0.00000009,-0.00000014,0.0003
 2451,0.00000025,-0.00000004,0.00031351,0.00000872,-0.00000289,0.005185
 37,0.00000060,-0.00000023,-0.00075655,-0.00003905,0.00010908,0.1789571
 5,0.00641453,-0.00654454,-0.00000095,0.00078135,0.00198709,0.00000192,
 0.00129441,-0.01209783,-0.00000854,-0.00335573,0.01462628,0.00000783,0
 .00167001,-0.01455688,0.00000095,-0.00098397,0.00980573,-0.00000213,-0
 .04800899,-0.05175271,-0.00000575,-0.00194726,0.01191385,0.00000360,0.
 00001764,-0.00030584,0.00000133,0.00007924,0.00045908,0.00000104,0.000
 36081,-0.00069099,-0.00000030,-0.00288902,-0.00214133,-0.00000165,-0.0
 0555604,0.00477275,-0.00000032,-0.00061139,-0.00899593,-0.00000118,0.0
 0224610,-0.00163541,-0.00000070,-0.13157403,-0.11671680,-0.00001575,0.
 15202560,0.00793632,-0.00938420,-0.00000106,0.00235901,0.00840224,0.00
 000414,0.00545060,-0.02260403,-0.00001575,-0.00854376,0.02859470,0.000
 01457,-0.00118188,-0.02924645,0.00000109,0.00096369,0.01999153,-0.0000
 0363,-0.06091254,-0.03771809,-0.00000944,0.00574071,0.01755636,0.00000
 471,0.00029146,-0.00022400,0.00000232,0.00017199,0.00060552,0.00000191
 ,0.00048631,0.00004807,-0.00000020,-0.00417751,-0.00351001,-0.00000280
 ,-0.00687165,0.00826342,-0.00000072,0.00823324,-0.00821684,-0.00000035
 ,-0.00380136,0.00222834,0.00000110,-0.08501226,-0.35601279,-0.00004754
 ,0.14120924,0.46566980,0.00000107,-0.00000117,0.00053670,0.00000045,0.
 00000141,-0.00056605,0.00000144,-0.00000445,0.00215543,-0.00000176,0.0
 0000582,-0.00111408,-0.00000036,-0.00000561,-0.00097588,0.00000068,0.0
 0000296,0.00149735,-0.00000454,-0.00000678,0.02133747,0.00000107,0.000
 00228,-0.00035844,0.00000007,-0.00000002,-0.00022504,0.,0.00000027,-0.
 00047762,0.00000007,0.00000003,-0.00000909,-0.00000084,-0.00000068,0.0
 0002739,-0.00000147,0.00000166,0.00041531,0.00000098,0.00000004,-0.002
 96810,-0.00000109,0.00000109,-0.00184131,-0.00001031,-0.00004556,-0.05
 970354,0.00001567,0.00007068,0.02353217,0.00954100,-0.00609746,-0.0000
 0042,0.00197359,0.00727262,0.00000296,0.00478749,-0.01675626,-0.000011
 96,-0.00543071,0.02206106,0.00001168,0.00116752,-0.02064805,0.00000079
 ,-0.00352173,0.01519100,-0.00000262,-0.06466244,0.04130845,0.00001221,
 0.00717998,0.01097349,0.00000275,0.00014977,-0.00035717,0.00000177,0.0
 0011716,0.00058415,0.00000151,0.00144550,0.00063288,-0.00000011,-0.004
 63541,-0.00333899,-0.00000238,-0.00605653,0.00592463,-0.00000051,-0.00
 945127,-0.01280820,-0.00000047,0.00034392,0.00016006,0.,-0.18895110,0.
 16192927,0.00004119,0.02950306,-0.00313495,-0.00000127,0.22569955,-0.0
 1172798,0.00779102,0.00000100,0.00024959,-0.00708610,-0.00000347,-0.00
 646806,0.02047740,0.00001326,0.00861309,-0.02500100,-0.00001259,0.0013
 5539,0.02464784,-0.00000063,0.00050340,-0.01790747,0.00000248,0.053204
 38,-0.00272962,-0.00000590,-0.01150172,-0.01301135,-0.00000217,-0.0002
 1737,0.00014681,-0.00000189,-0.00017793,-0.00047848,-0.00000154,-0.000
 14466,0.00255129,0.00000053,0.00315972,0.00305228,0.00000248,0.0051774
 9,-0.00664300,0.00000062,0.00498301,0.01054926,0.00000042,-0.00163266,
 0.00016821,0.00000015,0.12748044,-0.30665742,-0.00005748,0.03057249,-0
 .08422927,-0.00002194,-0.20279561,0.39412656,-0.00000279,0.00000211,-0
 .00005288,-0.00000018,-0.00000196,-0.00039983,-0.00000115,0.00000437,0
 .00159282,0.00000172,-0.00000523,-0.00055188,0.00000018,0.00000527,-0.
 00090960,0.00000064,-0.00000457,0.00123055,0.00001821,-0.00000801,0.01
 993799,-0.00000328,-0.00000260,-0.00461113,-0.00000007,0.00000008,-0.0
 0041444,-0.00000003,-0.00000003,-0.00016828,-0.00000008,0.00000024,0.0
 0073741,0.00000077,0.00000066,0.00015949,0.00000092,-0.00000130,0.0001
 4444,0.00000142,0.00000312,0.00100557,-0.00000034,0.00000003,-0.000007
 81,0.00003409,-0.00005991,-0.06046932,0.00000503,-0.00001882,0.0187652
 0,-0.00005492,0.00008651,0.02402003,-0.00044925,0.00070781,-0.00000002
 ,-0.00222095,0.00062225,0.00000032,-0.00263583,-0.00399050,-0.00000135
 ,-0.04674504,0.02825475,0.00001061,-0.00414376,0.00134694,0.00000206,-
 0.00071641,0.00057353,-0.00000050,0.00095312,-0.00128062,-0.00000069,0
 .00100464,-0.00038202,0.00000015,0.00027507,-0.00005851,0.00000015,0.0
 0040770,0.00014079,0.00000007,-0.00002325,-0.00002192,-0.00000007,-0.1
 9542644,0.17871173,0.00005173,0.00139800,0.00336461,-0.00000022,-0.000
 45999,0.00128716,0.00000063,-0.00010646,-0.00013333,-0.00000007,-0.001
 76693,-0.00030195,0.00000007,0.00053368,0.00079334,0.00000014,0.000800
 63,-0.00063300,-0.00000015,0.24932147,0.00134907,-0.00191826,-0.000000
 25,0.00041707,0.00309945,0.00000023,-0.00525474,-0.00259112,-0.0000000
 6,-0.00302432,0.01952198,0.00000448,-0.01592592,-0.00229736,-0.0000008
 4,0.00187987,-0.00033093,0.00000020,-0.00023442,0.00134965,0.00000040,
 -0.00031983,-0.00008140,0.00000003,0.00005902,-0.00017701,-0.00000009,
 -0.00034370,0.00008221,0.00000003,0.00003237,-0.00002723,0.00000001,0.
 21789122,-0.30714875,-0.00007923,0.01208832,0.00884456,0.00000184,0.00
 012644,-0.00213816,-0.00000061,0.00007279,0.00011323,0.00000006,0.0001
 9699,0.00013606,-0.00000006,0.00009175,-0.00021431,-0.00000004,-0.0001
 0092,0.00023303,0.00000006,-0.20900105,0.28354435,0.00000029,-0.000000
 57,0.00019750,0.00000059,0.00000030,0.00152957,-0.00000053,-0.00000031
 ,0.00143587,0.00000267,0.00000135,-0.00052398,-0.00000243,-0.00000089,
 0.00268935,0.00000039,-0.00000004,-0.00036383,-0.00000033,0.00000056,-
 0.00026450,-0.00000024,0.00000005,-0.00011822,-0.00000005,0.00000007,-
 0.00047550,-0.00000012,0.,-0.00014604,0.,0.,-0.00002328,0.00006038,-0.
 00007575,-0.01103166,0.00000191,0.00000196,-0.00535926,0.00000018,-0.0
 0000065,-0.00001038,0.00000003,0.00000005,-0.00004115,0.00000044,0.000
 00006,0.00015794,-0.00000010,-0.00000020,-0.00002787,-0.00000019,0.000
 00017,-0.00000832,-0.00006289,0.00007382,0.01238377\\0.00000281,0.0000
 0006,-0.00000072,-0.00000114,-0.00000040,0.00000005,-0.00000264,0.0000
 0171,-0.00000043,-0.00000119,0.00000798,-0.00000007,0.00000285,0.00000
 494,0.00000037,0.00000146,0.00000215,0.00000082,0.00000174,-0.00000533
 ,0.00000036,-0.00000339,-0.00000283,-0.00000009,-0.00000605,0.00000306
 ,0.00000021,0.00000646,0.00000243,-0.00000034,-0.00000539,-0.00000415,
 -0.00000007,-0.00000398,0.00000856,-0.00000007,0.00000377,0.00000760,-
 0.00000030,0.00000144,-0.00000300,0.00000023,0.00000494,-0.00000414,-0
 .00000018,-0.00000178,-0.00000841,0.00000023,0.00000310,-0.00000899,-0
 .00000015,-0.00000181,-0.00001093,-0.00000011,-0.00000120,0.00000969,0
 .00000024\\\@
 The archive entry for this job was punched.


 I WOULD TAKE COUNSEL OF MYSELF.
 I WOULD STOP AND LOOK WITHIN
 AND LOOKING WITHIN, LOOK BACK, ALSO
 THAT I MAY LOOK AHEAD WITH CLEARER UNDERSTANDING
 OF THE WAY I HAVE BEEN MOVING, AND IN WHAT DIRECTION.
 I NEED TO KNOW IF I AM GOING FORWARD OR RETREATING,
 WHETHER I HAVE BEEN WASTING, OR ENJOYING
 THE PRECIOUS MOMENTS OF LIFE.  THERE HAVE BEEN FRICTIONS,
 ANNOYANCES AND SOMETIMES WRATH,
 BUT WERE THEY BECAUSE I WAS RIGHT AND OTHERS WRONG.....
 HAVE I HAD MY THOUGHTS TOO SHARPLY FOCUSED
 ON THAT WHICH PLEASED ME, SERVED MY SELF-ESTEEM,
 UNDERGIRDED MY SECURITY,
 OF WHICH I DID NOT INQUIRE WHETHER IT SERVED OR HAMPERED OTHERS.....
 HAVE I BEEN TRYING TO STOP THE CLOCK
 TO HOLD THE WORLD
 IN PERPETUATION OF WHAT WAS AN IS ALREADY SLIPPING AWAY.....
 HAVE I BEEN CRITICAL OF OTHERS FOR WHAT REALLY NEEDED CHANGING IN ME...
 LET ME INDEED TAKE COUNSEL OF MYSELF
 AND SET MY DIRECTIONS STRAIGHT.

                          R.T. WESTON AS ADAPTED BY D. OSBORN 1967
 Job cpu time:       1 days 19 hours 54 minutes 32.8 seconds.
 Elapsed time:       0 days  2 hours 50 minutes 34.2 seconds.
 File lengths (MBytes):  RWF=    934 Int=      0 D2E=      0 Chk=     86 Scr=      2
 Normal termination of Gaussian 16 at Thu Oct 29 23:21:14 2020.
