 Entering Gaussian System, Link 0=/home/software/apps/gaussian/g09-revD.01/g09/g09
 Initial command:
 /home/software/apps/gaussian/g09-revD.01/g09/l1.exe "/nfs/scratch/humepa/Gau-11567.inp" -scrdir="/nfs/scratch/humepa/"
 Entering Link 1 = /home/software/apps/gaussian/g09-revD.01/g09/l1.exe PID=     11568.
  
 Copyright (c) 1988,1990,1992,1993,1995,1998,2003,2009,2013,
            Gaussian, Inc.  All Rights Reserved.
  
 This is part of the Gaussian(R) 09 program.  It is based on
 the Gaussian(R) 03 system (copyright 2003, Gaussian, Inc.),
 the Gaussian(R) 98 system (copyright 1998, Gaussian, Inc.),
 the Gaussian(R) 94 system (copyright 1995, Gaussian, Inc.),
 the Gaussian 92(TM) system (copyright 1992, Gaussian, Inc.),
 the Gaussian 90(TM) system (copyright 1990, Gaussian, Inc.),
 the Gaussian 88(TM) system (copyright 1988, Gaussian, Inc.),
 the Gaussian 86(TM) system (copyright 1986, Carnegie Mellon
 University), and the Gaussian 82(TM) system (copyright 1983,
 Carnegie Mellon University). Gaussian is a federally registered
 trademark of Gaussian, Inc.
  
 This software contains proprietary and confidential information,
 including trade secrets, belonging to Gaussian, Inc.
  
 This software is provided under written license and may be
 used, copied, transmitted, or stored only in accord with that
 written license.
  
 The following legend is applicable only to US Government
 contracts under FAR:
  
                    RESTRICTED RIGHTS LEGEND
  
 Use, reproduction and disclosure by the US Government is
 subject to restrictions as set forth in subparagraphs (a)
 and (c) of the Commercial Computer Software - Restricted
 Rights clause in FAR 52.227-19.
  
 Gaussian, Inc.
 340 Quinnipiac St., Bldg. 40, Wallingford CT 06492
  
  
 ---------------------------------------------------------------
 Warning -- This program may not be used in any manner that
 competes with the business of Gaussian, Inc. or will provide
 assistance to any competitor of Gaussian, Inc.  The licensee
 of this program is prohibited from giving any competitor of
 Gaussian, Inc. access to this program.  By using this program,
 the user acknowledges that Gaussian, Inc. is engaged in the
 business of creating and licensing software in the field of
 computational chemistry and represents and warrants to the
 licensee that it is not a competitor of Gaussian, Inc. and that
 it will not use this program in any manner prohibited above.
 ---------------------------------------------------------------
  

 Cite this work as:
 Gaussian 09, Revision D.01,
 M. J. Frisch, G. W. Trucks, H. B. Schlegel, G. E. Scuseria, 
 M. A. Robb, J. R. Cheeseman, G. Scalmani, V. Barone, B. Mennucci, 
 G. A. Petersson, H. Nakatsuji, M. Caricato, X. Li, H. P. Hratchian, 
 A. F. Izmaylov, J. Bloino, G. Zheng, J. L. Sonnenberg, M. Hada, 
 M. Ehara, K. Toyota, R. Fukuda, J. Hasegawa, M. Ishida, T. Nakajima, 
 Y. Honda, O. Kitao, H. Nakai, T. Vreven, J. A. Montgomery, Jr., 
 J. E. Peralta, F. Ogliaro, M. Bearpark, J. J. Heyd, E. Brothers, 
 K. N. Kudin, V. N. Staroverov, T. Keith, R. Kobayashi, J. Normand, 
 K. Raghavachari, A. Rendell, J. C. Burant, S. S. Iyengar, J. Tomasi, 
 M. Cossi, N. Rega, J. M. Millam, M. Klene, J. E. Knox, J. B. Cross, 
 V. Bakken, C. Adamo, J. Jaramillo, R. Gomperts, R. E. Stratmann, 
 O. Yazyev, A. J. Austin, R. Cammi, C. Pomelli, J. W. Ochterski, 
 R. L. Martin, K. Morokuma, V. G. Zakrzewski, G. A. Voth, 
 P. Salvador, J. J. Dannenberg, S. Dapprich, A. D. Daniels, 
 O. Farkas, J. B. Foresman, J. V. Ortiz, J. Cioslowski, 
 and D. J. Fox, Gaussian, Inc., Wallingford CT, 2013.
 
 ******************************************
 Gaussian 09:  EM64L-G09RevD.01 24-Apr-2013
                22-Oct-2020 
 ******************************************
 %nprocshared=16
 Will use up to   16 processors via shared memory.
 %mem=125GB
 %chk=K2DA.chk
 Default route:  MaxDisk=1000GB
 ----------------------------------------------------------------------
 # opt cam-b3lyp/6-31+G(d,p) freq=raman int=(superfine,acc2e=12) scrf=(
 solvent=water)
 ----------------------------------------------------------------------
 1/14=-1,18=20,19=15,26=5,38=1/1,3;
 2/9=110,12=2,17=6,18=5,40=1/2;
 3/5=1,6=6,7=111,11=2,16=1,25=1,30=1,70=2201,71=1,72=1,74=-40,75=-7/1,2,3;
 4//1;
 5/5=2,38=5,53=1,87=12/2;
 6/7=2,8=2,9=2,10=2,28=1/1;
 7/87=12/1,2,3,16;
 1/14=-1,18=20,19=15,26=5/3(2);
 2/9=110/2;
 99//99;
 2/9=110/2;
 3/5=1,6=6,7=111,11=2,16=1,25=1,30=1,70=2205,71=1,72=1,74=-40,75=-7/1,2,3;
 4/5=5,16=3,69=1/1;
 5/5=2,38=5,53=1,87=12/2;
 7/87=12/1,2,3,16;
 1/14=-1,18=20,19=15,26=5/3(-5);
 2/9=110/2;
 6/7=2,8=2,9=2,10=2,19=2,28=1/1;
 99/9=1/99;
 ----
 K2DA
 ----
 Symbolic Z-matrix:
 Charge = -2 Multiplicity = 1
 C                    -0.09358   0.61989   0.00008 
 C                    -0.13992  -0.81603   0.00007 
 C                    -1.40189  -1.47413   0.00002 
 C                    -2.53512  -0.71465  -0.00002 
 C                    -2.4471    0.71773  -0.00001 
 C                    -1.22343   1.3988    0.00004 
 C                     2.01144  -0.10919   0.00015 
 C                     1.1729   -1.26427   0.00011 
 H                    -1.47225  -2.55542   0.00001 
 H                    -1.18734   2.48272   0.00004 
 H                     1.54274  -2.27867   0.00012 
 O                    -3.75785  -1.29685  -0.00007 
 O                    -3.63493   1.33445  -0.00006 
 N                     1.24698   0.98476   0.00013 
 H                     1.65797   1.91245   0.00014 
 C                     3.53092   0.02478   0.00021 
 O                     3.92647   1.21169  -0.00027 
 O                     4.15357  -1.05313  -0.00022 
 H                    -4.54864  -0.75256  -0.00002 
 

 GradGradGradGradGradGradGradGradGradGradGradGradGradGradGradGradGradGrad
 Berny optimization.
 Initialization pass.
                           ----------------------------
                           !    Initial Parameters    !
                           ! (Angstroms and Degrees)  !
 --------------------------                            --------------------------
 ! Name  Definition              Value          Derivative Info.                !
 --------------------------------------------------------------------------------
 ! R1    R(1,2)                  1.4367         estimate D2E/DX2                !
 ! R2    R(1,6)                  1.3723         estimate D2E/DX2                !
 ! R3    R(1,14)                 1.3893         estimate D2E/DX2                !
 ! R4    R(2,3)                  1.4233         estimate D2E/DX2                !
 ! R5    R(2,8)                  1.3872         estimate D2E/DX2                !
 ! R6    R(3,4)                  1.3642         estimate D2E/DX2                !
 ! R7    R(3,9)                  1.0836         estimate D2E/DX2                !
 ! R8    R(4,5)                  1.4351         estimate D2E/DX2                !
 ! R9    R(4,12)                 1.3543         estimate D2E/DX2                !
 ! R10   R(5,6)                  1.4004         estimate D2E/DX2                !
 ! R11   R(5,13)                 1.3384         estimate D2E/DX2                !
 ! R12   R(6,10)                 1.0845         estimate D2E/DX2                !
 ! R13   R(7,8)                  1.4274         estimate D2E/DX2                !
 ! R14   R(7,14)                 1.3346         estimate D2E/DX2                !
 ! R15   R(7,16)                 1.5254         estimate D2E/DX2                !
 ! R16   R(8,11)                 1.0797         estimate D2E/DX2                !
 ! R17   R(12,19)                0.96           estimate D2E/DX2                !
 ! R18   R(14,15)                1.0146         estimate D2E/DX2                !
 ! R19   R(16,17)                1.2511         estimate D2E/DX2                !
 ! R20   R(16,18)                1.2448         estimate D2E/DX2                !
 ! A1    A(2,1,6)              122.7334         estimate D2E/DX2                !
 ! A2    A(2,1,14)             107.0744         estimate D2E/DX2                !
 ! A3    A(6,1,14)             130.1922         estimate D2E/DX2                !
 ! A4    A(1,2,3)              119.3899         estimate D2E/DX2                !
 ! A5    A(1,2,8)              107.0029         estimate D2E/DX2                !
 ! A6    A(3,2,8)              133.6072         estimate D2E/DX2                !
 ! A7    A(2,3,4)              118.6292         estimate D2E/DX2                !
 ! A8    A(2,3,9)              121.2643         estimate D2E/DX2                !
 ! A9    A(4,3,9)              120.1065         estimate D2E/DX2                !
 ! A10   A(3,4,5)              120.3129         estimate D2E/DX2                !
 ! A11   A(3,4,12)             120.7092         estimate D2E/DX2                !
 ! A12   A(5,4,12)             118.978          estimate D2E/DX2                !
 ! A13   A(4,5,6)              122.6159         estimate D2E/DX2                !
 ! A14   A(4,5,13)             113.9215         estimate D2E/DX2                !
 ! A15   A(6,5,13)             123.4626         estimate D2E/DX2                !
 ! A16   A(1,6,5)              116.3188         estimate D2E/DX2                !
 ! A17   A(1,6,10)             122.675          estimate D2E/DX2                !
 ! A18   A(5,6,10)             121.0062         estimate D2E/DX2                !
 ! A19   A(8,7,14)             109.0754         estimate D2E/DX2                !
 ! A20   A(8,7,16)             131.0172         estimate D2E/DX2                !
 ! A21   A(14,7,16)            119.9074         estimate D2E/DX2                !
 ! A22   A(2,8,7)              107.1269         estimate D2E/DX2                !
 ! A23   A(2,8,11)             128.8827         estimate D2E/DX2                !
 ! A24   A(7,8,11)             123.9905         estimate D2E/DX2                !
 ! A25   A(4,12,19)            120.0            estimate D2E/DX2                !
 ! A26   A(1,14,7)             109.7203         estimate D2E/DX2                !
 ! A27   A(1,14,15)            129.1204         estimate D2E/DX2                !
 ! A28   A(7,14,15)            121.1592         estimate D2E/DX2                !
 ! A29   A(7,16,17)            113.4698         estimate D2E/DX2                !
 ! A30   A(7,16,18)            114.9736         estimate D2E/DX2                !
 ! A31   A(17,16,18)           131.5566         estimate D2E/DX2                !
 ! D1    D(6,1,2,3)             -0.0002         estimate D2E/DX2                !
 ! D2    D(6,1,2,8)            179.9998         estimate D2E/DX2                !
 ! D3    D(14,1,2,3)          -179.9999         estimate D2E/DX2                !
 ! D4    D(14,1,2,8)             0.0001         estimate D2E/DX2                !
 ! D5    D(2,1,6,5)              0.0001         estimate D2E/DX2                !
 ! D6    D(2,1,6,10)          -179.9998         estimate D2E/DX2                !
 ! D7    D(14,1,6,5)           179.9997         estimate D2E/DX2                !
 ! D8    D(14,1,6,10)           -0.0002         estimate D2E/DX2                !
 ! D9    D(2,1,14,7)             0.0            estimate D2E/DX2                !
 ! D10   D(2,1,14,15)          179.9998         estimate D2E/DX2                !
 ! D11   D(6,1,14,7)          -179.9997         estimate D2E/DX2                !
 ! D12   D(6,1,14,15)            0.0001         estimate D2E/DX2                !
 ! D13   D(1,2,3,4)              0.0001         estimate D2E/DX2                !
 ! D14   D(1,2,3,9)           -179.9998         estimate D2E/DX2                !
 ! D15   D(8,2,3,4)           -179.9999         estimate D2E/DX2                !
 ! D16   D(8,2,3,9)              0.0001         estimate D2E/DX2                !
 ! D17   D(1,2,8,7)             -0.0002         estimate D2E/DX2                !
 ! D18   D(1,2,8,11)           179.9998         estimate D2E/DX2                !
 ! D19   D(3,2,8,7)            179.9999         estimate D2E/DX2                !
 ! D20   D(3,2,8,11)            -0.0002         estimate D2E/DX2                !
 ! D21   D(2,3,4,5)              0.0            estimate D2E/DX2                !
 ! D22   D(2,3,4,12)          -179.9999         estimate D2E/DX2                !
 ! D23   D(9,3,4,5)            180.0            estimate D2E/DX2                !
 ! D24   D(9,3,4,12)             0.0            estimate D2E/DX2                !
 ! D25   D(3,4,5,6)             -0.0001         estimate D2E/DX2                !
 ! D26   D(3,4,5,13)           179.9999         estimate D2E/DX2                !
 ! D27   D(12,4,5,6)           179.9998         estimate D2E/DX2                !
 ! D28   D(12,4,5,13)           -0.0001         estimate D2E/DX2                !
 ! D29   D(3,4,12,19)          179.9952         estimate D2E/DX2                !
 ! D30   D(5,4,12,19)           -0.0048         estimate D2E/DX2                !
 ! D31   D(4,5,6,1)              0.0001         estimate D2E/DX2                !
 ! D32   D(4,5,6,10)          -180.0            estimate D2E/DX2                !
 ! D33   D(13,5,6,1)          -180.0            estimate D2E/DX2                !
 ! D34   D(13,5,6,10)           -0.0001         estimate D2E/DX2                !
 ! D35   D(14,7,8,2)             0.0002         estimate D2E/DX2                !
 ! D36   D(14,7,8,11)         -179.9998         estimate D2E/DX2                !
 ! D37   D(16,7,8,2)           179.9993         estimate D2E/DX2                !
 ! D38   D(16,7,8,11)           -0.0007         estimate D2E/DX2                !
 ! D39   D(8,7,14,1)            -0.0001         estimate D2E/DX2                !
 ! D40   D(8,7,14,15)         -179.9999         estimate D2E/DX2                !
 ! D41   D(16,7,14,1)         -179.9993         estimate D2E/DX2                !
 ! D42   D(16,7,14,15)           0.0009         estimate D2E/DX2                !
 ! D43   D(8,7,16,17)          179.9753         estimate D2E/DX2                !
 ! D44   D(8,7,16,18)            0.0235         estimate D2E/DX2                !
 ! D45   D(14,7,16,17)          -0.0257         estimate D2E/DX2                !
 ! D46   D(14,7,16,18)        -179.9775         estimate D2E/DX2                !
 --------------------------------------------------------------------------------
 Trust Radius=3.00D-01 FncErr=1.00D-07 GrdErr=1.00D-07
 Number of steps in this run=    107 maximum allowed number of steps=    114.
 GradGradGradGradGradGradGradGradGradGradGradGradGradGradGradGradGradGrad

                          Input orientation:                          
 ---------------------------------------------------------------------
 Center     Atomic      Atomic             Coordinates (Angstroms)
 Number     Number       Type             X           Y           Z
 ---------------------------------------------------------------------
      1          6           0       -0.093580    0.619889    0.000077
      2          6           0       -0.139924   -0.816028    0.000067
      3          6           0       -1.401894   -1.474125    0.000018
      4          6           0       -2.535124   -0.714649   -0.000021
      5          6           0       -2.447099    0.717730   -0.000013
      6          6           0       -1.223431    1.398795    0.000037
      7          6           0        2.011444   -0.109192    0.000145
      8          6           0        1.172899   -1.264267    0.000112
      9          1           0       -1.472254   -2.555415    0.000012
     10          1           0       -1.187342    2.482718    0.000042
     11          1           0        1.542737   -2.278673    0.000123
     12          8           0       -3.757850   -1.296847   -0.000067
     13          8           0       -3.634927    1.334445   -0.000056
     14          7           0        1.246980    0.984761    0.000125
     15          1           0        1.657968    1.912445    0.000142
     16          6           0        3.530924    0.024782    0.000214
     17          8           0        3.926469    1.211690   -0.000268
     18          8           0        4.153565   -1.053127   -0.000216
     19          1           0       -4.548644   -0.752563   -0.000024
 ---------------------------------------------------------------------
                    Distance matrix (angstroms):
                    1          2          3          4          5
     1  C    0.000000
     2  C    1.436665   0.000000
     3  C    2.469125   1.423257   0.000000
     4  C    2.782468   2.397345   1.364190   0.000000
     5  C    2.355552   2.770464   2.428308   1.435081   0.000000
     6  C    1.372318   2.465650   2.878458   2.487405   1.400433
     7  C    2.227708   2.264509   3.676128   4.586705   4.534579
     8  C    2.270245   1.387236   2.583331   3.748535   4.127069
     9  H    3.461690   2.191020   1.083577   2.125585   3.415231
    10  H    2.160196   3.461042   3.962656   3.469823   2.168449
    11  H    3.328542   2.229502   3.052564   4.367507   4.989712
    12  O    4.135305   3.649736   2.362616   1.354258   2.403453
    13  O    3.612718   4.103606   3.588106   2.325587   1.338384
    14  N    1.389328   2.272959   3.614229   4.146360   3.703718
    15  H    2.176837   3.267565   4.564166   4.948095   4.275385
    16  C    3.673034   3.765911   5.155523   6.110949   6.018051
    17  O    4.063376   4.543918   5.966997   6.742623   6.392681
    18  O    4.564781   4.300031   5.571388   6.697248   6.834084
    19  H    4.661676   4.409177   3.228419   2.013877   2.564811
                    6          7          8          9         10
     6  C    0.000000
     7  C    3.569095   0.000000
     8  C    3.582499   1.427360   0.000000
     9  H    3.962031   4.256778   2.943450   0.000000
    10  H    1.084524   4.117066   4.428390   5.046183   0.000000
    11  H    4.601680   2.219535   1.079722   3.027665   5.488549
    12  O    3.699968   5.890270   4.930857   2.609203   4.570845
    13  O    2.412354   5.828001   5.465208   4.450637   2.703554
    14  N    2.504866   1.334593   2.250248   4.463976   2.858286
    15  H    2.926824   2.052306   3.213532   5.455278   2.901896
    16  C    4.948919   1.525375   2.687365   5.629317   5.320102
    17  O    5.153298   2.326381   3.703041   6.583106   5.269400
    18  O    5.909654   2.340875   2.988135   5.822947   6.405270
    19  H    3.960478   6.591561   5.744379   3.565733   4.665340
                   11         12         13         14         15
    11  H    0.000000
    12  O    5.390752   0.000000
    13  O    6.313701   2.634162   0.000000
    14  N    3.276808   5.500369   4.894415   0.000000
    15  H    4.192702   6.295287   5.324361   1.014647   0.000000
    16  C    3.042826   7.407626   7.284548   2.477491   2.659180
    17  O    4.226679   8.083410   7.562392   2.689081   2.374269
    18  O    2.884161   7.915168   8.146233   3.549820   3.875903
    19  H    6.279644   0.960000   2.278263   6.050418   6.754576
                   16         17         18         19
    16  C    0.000000
    17  O    1.251082   0.000000
    18  O    1.244817   2.276174   0.000000
    19  H    8.116877   8.699760   8.707398   0.000000
 Stoichiometry    C9H5NO4(2-)
 Framework group  C1[X(C9H5NO4)]
 Deg. of freedom    51
 Full point group                 C1      NOp   1
 Largest Abelian subgroup         C1      NOp   1
 Largest concise Abelian subgroup C1      NOp   1
                         Standard orientation:                         
 ---------------------------------------------------------------------
 Center     Atomic      Atomic             Coordinates (Angstroms)
 Number     Number       Type             X           Y           Z
 ---------------------------------------------------------------------
      1          6           0       -0.119304    0.646549    0.000076
      2          6           0       -0.187058   -0.788517    0.000066
      3          6           0       -1.458703   -1.427720    0.000017
      4          6           0       -2.580480   -0.651428   -0.000022
      5          6           0       -2.471103    0.779479   -0.000014
      6          6           0       -1.237413    1.442219    0.000036
      7          6           0        1.974612   -0.113845    0.000144
      8          6           0        1.118934   -1.256286    0.000111
      9          1           0       -1.545181   -2.507840    0.000011
     10          1           0       -1.185163    2.525483    0.000041
     11          1           0        1.473602   -2.276094    0.000122
     12          8           0       -3.811753   -1.215325   -0.000068
     13          8           0       -3.649601    1.413841   -0.000057
     14          7           0        1.226548    0.991387    0.000124
     15          1           0        1.651326    1.912839    0.000141
     16          6           0        3.495921   -0.002547    0.000213
     17          8           0        3.909123    1.178330   -0.000269
     18          8           0        4.102417   -1.089622   -0.000217
     19          1           0       -4.594342   -0.659308   -0.000025
 ---------------------------------------------------------------------
 Rotational constants (GHZ):      2.2358755      0.3568486      0.3077339
 Standard basis: 6-31+G(d,p) (6D, 7F)
 There are   291 symmetry adapted cartesian basis functions of A   symmetry.
 There are   291 symmetry adapted basis functions of A   symmetry.
   291 basis functions,   483 primitive gaussians,   291 cartesian basis functions
    50 alpha electrons       50 beta electrons
       nuclear repulsion energy       811.2118736681 Hartrees.
 NAtoms=   19 NActive=   19 NUniq=   19 SFac= 1.00D+00 NAtFMM=   60 NAOKFM=F Big=F
 Integral buffers will be    131072 words long.
 Raffenetti 2 integral format.
 Two-electron integral symmetry is turned on.
 ------------------------------------------------------------------------------
 Polarizable Continuum Model (PCM)
 =================================
 Model                : PCM (using non-symmetric T matrix).
 Atomic radii         : UFF (Universal Force Field).
 Polarization charges : Total charges.
 Charge compensation  : None.
 Solution method      : On-the-fly selection.
 Cavity type          : Scaled VdW (van der Waals Surface) (Alpha=1.100).
 Cavity algorithm     : GePol (No added spheres)
                        Default sphere list used, NSphG=   19.
                        Lebedev-Laikov grids with approx.  5.0 points / Ang**2.
                        Smoothing algorithm: Karplus/York (Gamma=1.0000).
                        Polarization charges: spherical gaussians, with
                                              point-specific exponents (IZeta= 3).
                        Self-potential: point-specific (ISelfS= 7).
                        Self-field    : sphere-specific E.n sum rule (ISelfD= 2).
 1st derivatives      : Analytical E(r).r(x)/FMM algorithm (CHGder, D1EAlg=3).
                        Cavity 1st derivative terms included.
 Solvent              : Water, Eps=  78.355300 Eps(inf)=   1.777849
 ------------------------------------------------------------------------------
 Spheres list:
 ISph  on   Nord     Re0    Alpha      Xe            Ye            Ze
    1   C      1    1.9255  1.100     -0.119304      0.646549      0.000076
    2   C      2    1.9255  1.100     -0.187058     -0.788517      0.000066
    3   C      3    1.9255  1.100     -1.458703     -1.427720      0.000017
    4   C      4    1.9255  1.100     -2.580480     -0.651428     -0.000022
    5   C      5    1.9255  1.100     -2.471103      0.779479     -0.000014
    6   C      6    1.9255  1.100     -1.237413      1.442219      0.000036
    7   C      7    1.9255  1.100      1.974612     -0.113845      0.000144
    8   C      8    1.9255  1.100      1.118934     -1.256286      0.000111
    9   H      9    1.4430  1.100     -1.545181     -2.507840      0.000011
   10   H     10    1.4430  1.100     -1.185163      2.525483      0.000041
   11   H     11    1.4430  1.100      1.473602     -2.276094      0.000122
   12   O     12    1.7500  1.100     -3.811753     -1.215325     -0.000068
   13   O     13    1.7500  1.100     -3.649601      1.413841     -0.000057
   14   N     14    1.8300  1.100      1.226548      0.991387      0.000124
   15   H     15    1.4430  1.100      1.651326      1.912839      0.000141
   16   C     16    1.9255  1.100      3.495921     -0.002547      0.000213
   17   O     17    1.7500  1.100      3.909123      1.178330     -0.000269
   18   O     18    1.7500  1.100      4.102417     -1.089622     -0.000217
   19   H     19    1.4430  1.100     -4.594342     -0.659308     -0.000025
 ------------------------------------------------------------------------------
 One-electron integrals computed using PRISM.
 NBasis=   291 RedAO= T EigKep=  1.59D-06  NBF=   291
 NBsUse=   290 1.00D-06 EigRej=  7.87D-07 NBFU=   290
 ExpMin= 4.38D-02 ExpMax= 5.48D+03 ExpMxC= 8.25D+02 IAcc=3 IRadAn=         7 AccDes= 0.00D+00
 Harris functional with IExCor=20419 and IRadAn=       7 diagonalized for initial guess.
 HarFok:  IExCor=20419 AccDes= 0.00D+00 IRadAn=         7 IDoV= 1 UseB2=F ITyADJ=14
 ICtDFT=  3500011 ScaDFX=  1.000000  1.000000  1.000000  1.000000
 FoFCou: FMM=F IPFlag=           0 FMFlag=      100000 FMFlg1=           0
         NFxFlg=           0 DoJE=T BraDBF=F KetDBF=T FulRan=T
         wScrn=  0.000000 ICntrl=     500 IOpCl=  0 I1Cent=   200000004 NGrid=           0
         NMat0=    1 NMatS0=      1 NMatT0=    0 NMatD0=    1 NMtDS0=    0 NMtDT0=    0
 Petite list used in FoFCou.
 Keep R1 ints in memory in canonical form, NReq=1817830489.
 Requested convergence on RMS density matrix=1.00D-08 within 128 cycles.
 Requested convergence on MAX density matrix=1.00D-06.
 Requested convergence on             energy=1.00D-06.
 No special actions if energy rises.
 Inv3:  Mode=1 IEnd=     9871788.
 Iteration    1 A*A^-1 deviation from unit magnitude is 7.77D-15 for    355.
 Iteration    1 A*A^-1 deviation from orthogonality  is 6.56D-15 for   1680   1392.
 Iteration    1 A^-1*A deviation from unit magnitude is 6.66D-15 for    260.
 Iteration    1 A^-1*A deviation from orthogonality  is 3.36D-12 for   1663   1631.
 Error on total polarization charges =  0.03175
 SCF Done:  E(RCAM-B3LYP) =  -701.642323905     A.U. after   17 cycles
            NFock= 17  Conv=0.48D-08     -V/T= 2.0087

 **********************************************************************

            Population analysis using the SCF density.

 **********************************************************************

 Orbital symmetries:
       Occupied  (A) (A) (A) (A) (A) (A) (A) (A) (A) (A) (A) (A)
                 (A) (A) (A) (A) (A) (A) (A) (A) (A) (A) (A) (A)
                 (A) (A) (A) (A) (A) (A) (A) (A) (A) (A) (A) (A)
                 (A) (A) (A) (A) (A) (A) (A) (A) (A) (A) (A) (A)
                 (A) (A)
       Virtual   (A) (A) (A) (A) (A) (A) (A) (A) (A) (A) (A) (A)
                 (A) (A) (A) (A) (A) (A) (A) (A) (A) (A) (A) (A)
                 (A) (A) (A) (A) (A) (A) (A) (A) (A) (A) (A) (A)
                 (A) (A) (A) (A) (A) (A) (A) (A) (A) (A) (A) (A)
                 (A) (A) (A) (A) (A) (A) (A) (A) (A) (A) (A) (A)
                 (A) (A) (A) (A) (A) (A) (A) (A) (A) (A) (A) (A)
                 (A) (A) (A) (A) (A) (A) (A) (A) (A) (A) (A) (A)
                 (A) (A) (A) (A) (A) (A) (A) (A) (A) (A) (A) (A)
                 (A) (A) (A) (A) (A) (A) (A) (A) (A) (A) (A) (A)
                 (A) (A) (A) (A) (A) (A) (A) (A) (A) (A) (A) (A)
                 (A) (A) (A) (A) (A) (A) (A) (A) (A) (A) (A) (A)
                 (A) (A) (A) (A) (A) (A) (A) (A) (A) (A) (A) (A)
                 (A) (A) (A) (A) (A) (A) (A) (A) (A) (A) (A) (A)
                 (A) (A) (A) (A) (A) (A) (A) (A) (A) (A) (A) (A)
                 (A) (A) (A) (A) (A) (A) (A) (A) (A) (A) (A) (A)
                 (A) (A) (A) (A) (A) (A) (A) (A) (A) (A) (A) (A)
                 (A) (A) (A) (A) (A) (A) (A) (A) (A) (A) (A) (A)
                 (A) (A) (A) (A) (A) (A) (A) (A) (A) (A) (A) (A)
                 (A) (A) (A) (A) (A) (A) (A) (A) (A) (A) (A) (A)
                 (A) (A) (A) (A) (A) (A) (A) (A) (A) (A) (A) (A)
 The electronic state is 1-A.
 Alpha  occ. eigenvalues --  -19.23329 -19.16378 -19.16133 -19.13222 -14.42894
 Alpha  occ. eigenvalues --  -10.34459 -10.29125 -10.28082 -10.27112 -10.26214
 Alpha  occ. eigenvalues --  -10.24038 -10.23536 -10.23006 -10.22583  -1.12208
 Alpha  occ. eigenvalues --   -1.10629  -1.04565  -1.01805  -1.00194  -0.89380
 Alpha  occ. eigenvalues --   -0.83427  -0.80283  -0.75080  -0.68629  -0.65347
 Alpha  occ. eigenvalues --   -0.64765  -0.60625  -0.58511  -0.54209  -0.51925
 Alpha  occ. eigenvalues --   -0.49912  -0.49387  -0.49082  -0.47566  -0.46893
 Alpha  occ. eigenvalues --   -0.46706  -0.44328  -0.43910  -0.42269  -0.41579
 Alpha  occ. eigenvalues --   -0.38089  -0.37739  -0.34181  -0.31326  -0.30265
 Alpha  occ. eigenvalues --   -0.29884  -0.29461  -0.27246  -0.24329  -0.19090
 Alpha virt. eigenvalues --    0.03755   0.03929   0.04495   0.05224   0.06517
 Alpha virt. eigenvalues --    0.06564   0.07095   0.08038   0.08780   0.09064
 Alpha virt. eigenvalues --    0.09571   0.10238   0.10656   0.11188   0.12242
 Alpha virt. eigenvalues --    0.12511   0.13203   0.13258   0.14852   0.15665
 Alpha virt. eigenvalues --    0.16409   0.17231   0.17297   0.18449   0.19116
 Alpha virt. eigenvalues --    0.20343   0.20416   0.20559   0.21731   0.21812
 Alpha virt. eigenvalues --    0.22496   0.23205   0.23219   0.23732   0.24848
 Alpha virt. eigenvalues --    0.25423   0.25788   0.26692   0.26728   0.28278
 Alpha virt. eigenvalues --    0.28404   0.28860   0.29438   0.29872   0.30334
 Alpha virt. eigenvalues --    0.30453   0.30961   0.31330   0.32342   0.32729
 Alpha virt. eigenvalues --    0.33316   0.33928   0.34719   0.34764   0.35113
 Alpha virt. eigenvalues --    0.36623   0.37401   0.37489   0.37964   0.38403
 Alpha virt. eigenvalues --    0.38881   0.40489   0.41256   0.42268   0.43079
 Alpha virt. eigenvalues --    0.44045   0.44451   0.46383   0.46851   0.48383
 Alpha virt. eigenvalues --    0.49394   0.51749   0.53476   0.54826   0.56608
 Alpha virt. eigenvalues --    0.57574   0.62444   0.66995   0.72241   0.73519
 Alpha virt. eigenvalues --    0.76859   0.78634   0.78659   0.79229   0.81093
 Alpha virt. eigenvalues --    0.81731   0.82930   0.83772   0.84731   0.87014
 Alpha virt. eigenvalues --    0.88924   0.89221   0.91271   0.93850   0.94077
 Alpha virt. eigenvalues --    0.94157   0.95175   0.97374   0.99439   1.01632
 Alpha virt. eigenvalues --    1.02979   1.05528   1.07803   1.11042   1.12600
 Alpha virt. eigenvalues --    1.12985   1.14124   1.17228   1.18051   1.20321
 Alpha virt. eigenvalues --    1.21414   1.23070   1.24627   1.26664   1.27300
 Alpha virt. eigenvalues --    1.28194   1.30729   1.31232   1.32614   1.33964
 Alpha virt. eigenvalues --    1.36295   1.36429   1.36734   1.38352   1.39744
 Alpha virt. eigenvalues --    1.40646   1.41988   1.42901   1.42955   1.44047
 Alpha virt. eigenvalues --    1.45293   1.46190   1.46646   1.48194   1.48711
 Alpha virt. eigenvalues --    1.49214   1.50299   1.51034   1.54942   1.55118
 Alpha virt. eigenvalues --    1.56803   1.59680   1.63629   1.65277   1.70100
 Alpha virt. eigenvalues --    1.70906   1.76548   1.80080   1.81854   1.84636
 Alpha virt. eigenvalues --    1.89178   1.89777   1.91635   1.92747   1.93118
 Alpha virt. eigenvalues --    1.93512   1.94408   1.96651   1.98212   1.98879
 Alpha virt. eigenvalues --    1.99322   2.00806   2.02343   2.04207   2.04902
 Alpha virt. eigenvalues --    2.05169   2.06069   2.10878   2.14305   2.16140
 Alpha virt. eigenvalues --    2.19965   2.21287   2.22312   2.25159   2.25339
 Alpha virt. eigenvalues --    2.25885   2.29687   2.30759   2.31871   2.35542
 Alpha virt. eigenvalues --    2.36199   2.37513   2.44809   2.45836   2.49153
 Alpha virt. eigenvalues --    2.50338   2.51365   2.53481   2.54752   2.58711
 Alpha virt. eigenvalues --    2.59055   2.61921   2.64635   2.68105   2.69162
 Alpha virt. eigenvalues --    2.72970   2.76484   2.76931   2.79479   2.80549
 Alpha virt. eigenvalues --    2.82048   2.82813   2.85362   2.86421   2.88317
 Alpha virt. eigenvalues --    2.88946   2.93383   2.95535   2.99117   3.04642
 Alpha virt. eigenvalues --    3.11004   3.11896   3.15793   3.17966   3.19889
 Alpha virt. eigenvalues --    3.22434   3.24752   3.30488   3.33226   3.38348
 Alpha virt. eigenvalues --    3.44161   3.56480   3.66655   3.70991   3.73050
 Alpha virt. eigenvalues --    3.85757   4.25133   4.29115   4.41005   4.42597
 Alpha virt. eigenvalues --    4.45528   4.48721   4.56052   4.59492   4.62946
 Alpha virt. eigenvalues --    4.67871   4.83343   4.84778   4.92517   5.14697
          Condensed to atoms (all electrons):
               1          2          3          4          5          6
     1  C   12.645413   0.384252  -4.487218   1.880975  -0.330867  -1.177989
     2  C    0.384252  14.063008  -6.198802  -0.162988  -0.512209   0.120871
     3  C   -4.487218  -6.198802  18.022685  -1.702368  -0.730441   0.823698
     4  C    1.880975  -0.162988  -1.702368   9.793047  -1.152882  -1.715860
     5  C   -0.330867  -0.512209  -0.730441  -1.152882   7.380204   0.480745
     6  C   -1.177989   0.120871   0.823698  -1.715860   0.480745   9.781021
     7  C    0.441156   0.800856  -1.993165  -0.302428  -0.098935   0.032143
     8  C   -2.828017  -2.536181   2.920417  -0.564706   0.224787  -1.258718
     9  H    0.052526   0.049400   0.177970   0.026378   0.029075  -0.027258
    10  H   -0.010120   0.053259  -0.037604   0.045429  -0.062201   0.337424
    11  H    0.108659  -0.061444  -0.009468  -0.002123   0.002562  -0.002311
    12  O   -0.035926   0.008186  -0.409245   0.149582   0.121220   0.024630
    13  O    0.041490  -0.051697   0.054955  -0.346491   0.476036  -0.258136
    14  N   -0.111356   0.299862   0.112155  -0.060025   0.024847  -0.068454
    15  H   -0.112210   0.124419   0.036410  -0.003943  -0.001239  -0.081184
    16  C    0.044770  -1.091373  -0.341651  -0.073610   0.035977  -0.149902
    17  O   -0.001176  -0.007373   0.005830   0.000863   0.000012  -0.022825
    18  O    0.013783   0.042348  -0.003005   0.000741   0.000656  -0.002862
    19  H   -0.005427  -0.006787   0.148123   0.001759  -0.139806  -0.007765
               7          8          9         10         11         12
     1  C    0.441156  -2.828017   0.052526  -0.010120   0.108659  -0.035926
     2  C    0.800856  -2.536181   0.049400   0.053259  -0.061444   0.008186
     3  C   -1.993165   2.920417   0.177970  -0.037604  -0.009468  -0.409245
     4  C   -0.302428  -0.564706   0.026378   0.045429  -0.002123   0.149582
     5  C   -0.098935   0.224787   0.029075  -0.062201   0.002562   0.121220
     6  C    0.032143  -1.258718  -0.027258   0.337424  -0.002311   0.024630
     7  C   11.918001  -1.106141  -0.003479   0.002441  -0.074844   0.003627
     8  C   -1.106141  10.041526   0.003478  -0.003035   0.357452   0.000126
     9  H   -0.003479   0.003478   0.565963   0.000014   0.001306  -0.002544
    10  H    0.002441  -0.003035   0.000014   0.563243   0.000002  -0.000601
    11  H   -0.074844   0.357452   0.001306   0.000002   0.553587  -0.000006
    12  O    0.003627   0.000126  -0.002544  -0.000601  -0.000006   8.630355
    13  O    0.001064  -0.000772  -0.000930  -0.004269   0.000002  -0.064878
    14  N    0.167807  -0.345969  -0.000738  -0.012051   0.009965   0.001104
    15  H   -0.040031   0.093301   0.000002   0.001193  -0.000093   0.000002
    16  C   -2.586620   0.409925  -0.000549   0.001475  -0.012504   0.000995
    17  O   -0.346538   0.097314   0.000001   0.000010  -0.000753   0.000002
    18  O   -0.324237   0.022296   0.000002  -0.000001   0.000258   0.000001
    19  H    0.000964   0.003453  -0.000185  -0.000007   0.000000   0.220075
              13         14         15         16         17         18
     1  C    0.041490  -0.111356  -0.112210   0.044770  -0.001176   0.013783
     2  C   -0.051697   0.299862   0.124419  -1.091373  -0.007373   0.042348
     3  C    0.054955   0.112155   0.036410  -0.341651   0.005830  -0.003005
     4  C   -0.346491  -0.060025  -0.003943  -0.073610   0.000863   0.000741
     5  C    0.476036   0.024847  -0.001239   0.035977   0.000012   0.000656
     6  C   -0.258136  -0.068454  -0.081184  -0.149902  -0.022825  -0.002862
     7  C    0.001064   0.167807  -0.040031  -2.586620  -0.346538  -0.324237
     8  C   -0.000772  -0.345969   0.093301   0.409925   0.097314   0.022296
     9  H   -0.000930  -0.000738   0.000002  -0.000549   0.000001   0.000002
    10  H   -0.004269  -0.012051   0.001193   0.001475   0.000010  -0.000001
    11  H    0.000002   0.009965  -0.000093  -0.012504  -0.000753   0.000258
    12  O   -0.064878   0.001104   0.000002   0.000995   0.000002   0.000001
    13  O    9.069854  -0.001093  -0.000003   0.000019   0.000005   0.000001
    14  N   -0.001093   7.245973   0.324603  -0.178023  -0.014485   0.008595
    15  H   -0.000003   0.324603   0.383562  -0.064063   0.014493   0.000722
    16  C    0.000019  -0.178023  -0.064063   8.141419   0.432790   0.396897
    17  O    0.000005  -0.014485   0.014493   0.432790   8.773537  -0.176905
    18  O    0.000001   0.008595   0.000722   0.396897  -0.176905   8.782568
    19  H    0.035986  -0.000024  -0.000000   0.000036  -0.000000   0.000000
              19
     1  C   -0.005427
     2  C   -0.006787
     3  C    0.148123
     4  C    0.001759
     5  C   -0.139806
     6  C   -0.007765
     7  C    0.000964
     8  C    0.003453
     9  H   -0.000185
    10  H   -0.000007
    11  H    0.000000
    12  O    0.220075
    13  O    0.035986
    14  N   -0.000024
    15  H   -0.000000
    16  C    0.000036
    17  O   -0.000000
    18  O    0.000000
    19  H    0.347238
 Mulliken charges:
               1
     1  C   -0.512719
     2  C    0.682393
     3  C   -0.389274
     4  C    0.188650
     5  C    0.252459
     6  C   -0.827266
     7  C   -0.491640
     8  C    0.469463
     9  H    0.129566
    10  H    0.125401
    11  H    0.129754
    12  O   -0.646705
    13  O   -0.951144
    14  N   -0.402693
    15  H    0.324058
    16  C    1.033993
    17  O   -0.754803
    18  O   -0.761860
    19  H    0.402367
 Sum of Mulliken charges =  -2.00000
 Mulliken charges with hydrogens summed into heavy atoms:
               1
     1  C   -0.512719
     2  C    0.682393
     3  C   -0.259709
     4  C    0.188650
     5  C    0.252459
     6  C   -0.701865
     7  C   -0.491640
     8  C    0.599216
    12  O   -0.244338
    13  O   -0.951144
    14  N   -0.078634
    16  C    1.033993
    17  O   -0.754803
    18  O   -0.761860
 Electronic spatial extent (au):  <R**2>=           3328.8689
 Charge=             -2.0000 electrons
 Dipole moment (field-independent basis, Debye):
    X=             -5.7830    Y=             -1.9210    Z=              0.0021  Tot=              6.0937
 Quadrupole moment (field-independent basis, Debye-Ang):
   XX=           -218.7314   YY=           -101.3871   ZZ=            -88.9633
   XY=             17.3453   XZ=              0.0066   YZ=              0.0009
 Traceless Quadrupole moment (field-independent basis, Debye-Ang):
   XX=            -82.3708   YY=             34.9735   ZZ=             47.3973
   XY=             17.3453   XZ=              0.0066   YZ=              0.0009
 Octapole moment (field-independent basis, Debye-Ang**2):
  XXX=           -223.9598  YYY=             -4.5830  ZZZ=             -0.0021  XYY=             14.4633
  XXY=            -50.5651  XXZ=              0.0376  XZZ=              3.2426  YZZ=              0.9542
  YYZ=              0.0023  XYZ=              0.0016
 Hexadecapole moment (field-independent basis, Debye-Ang**3):
 XXXX=          -5781.9052 YYYY=           -722.3210 ZZZZ=           -109.2205 XXXY=            280.2299
 XXXZ=              0.1245 YYYX=             67.7394 YYYZ=              0.0046 ZZZX=              0.0056
 ZZZY=              0.0030 XXYY=          -1072.8897 XXZZ=           -650.5556 YYZZ=           -151.7760
 XXYZ=              0.0088 YYXZ=              0.0052 ZZXY=             11.3569
 N-N= 8.112118736681D+02 E-N=-3.291898333972D+03  KE= 6.955748676180D+02
 D1PCM: PCM CHGder 1st derivatives, ID1Alg=3 FixD1E=F DoIter=F DoCFld=F I1PDM=0.
 Calling FoFJK, ICntrl=      2127 FMM=F ISym2X=0 I1Cent= 0 IOpClX= 0 NMat=1 NMatS=1 NMatT=0.
 ***** Axes restored to original set *****
 -------------------------------------------------------------------
 Center     Atomic                   Forces (Hartrees/Bohr)
 Number     Number              X              Y              Z
 -------------------------------------------------------------------
      1        6           0.026666940   -0.017577112    0.000001121
      2        6          -0.025611811    0.018968124   -0.000002157
      3        6           0.007130979   -0.001918399   -0.000000536
      4        6           0.011973331    0.016119700    0.000002088
      5        6          -0.049279612    0.027530584   -0.000002063
      6        6          -0.020202825   -0.000517277   -0.000002092
      7        6           0.015415034   -0.058359476    0.000039618
      8        6           0.053107479    0.021408620    0.000003956
      9        1           0.001162703   -0.002778734    0.000000088
     10        1          -0.002269407    0.000373920   -0.000000013
     11        1          -0.000414664   -0.001179433    0.000000481
     12        8          -0.004486447   -0.036256826   -0.000001835
     13        8           0.018040088   -0.003829200    0.000001398
     14        7          -0.030226566    0.019930400    0.000002689
     15        1          -0.004775862   -0.003121164   -0.000001227
     16        6          -0.049582907   -0.005456352   -0.000124158
     17        8           0.019383999    0.010983439    0.000040860
     18        8           0.023568900   -0.007705912    0.000041249
     19        1           0.010400648    0.023385100    0.000000533
 -------------------------------------------------------------------
 Cartesian Forces:  Max     0.058359476 RMS     0.018871342

 GradGradGradGradGradGradGradGradGradGradGradGradGradGradGradGradGradGrad
 Berny optimization.
 FormGI is forming the generalized inverse of G from B-inverse, IUseBI=4.
 Internal  Forces:  Max     0.045647738 RMS     0.010902917
 Search for a local minimum.
 Step number   1 out of a maximum of  107
 All quantities printed in internal units (Hartrees-Bohrs-Radians)
 Mixed Optimization -- RFO/linear search
 Second derivative matrix not updated -- first step.
 ITU=  0
     Eigenvalues ---    0.00430   0.00430   0.01478   0.01781   0.01839
     Eigenvalues ---    0.01873   0.01979   0.02013   0.02057   0.02101
     Eigenvalues ---    0.02109   0.02209   0.02244   0.02282   0.02297
     Eigenvalues ---    0.02301   0.16000   0.16000   0.16000   0.16000
     Eigenvalues ---    0.16000   0.23054   0.23499   0.23835   0.24311
     Eigenvalues ---    0.25000   0.25000   0.25000   0.25000   0.25000
     Eigenvalues ---    0.25000   0.29855   0.35453   0.35526   0.35566
     Eigenvalues ---    0.36028   0.39098   0.40086   0.40635   0.43650
     Eigenvalues ---    0.44576   0.45203   0.47288   0.48405   0.51503
     Eigenvalues ---    0.54125   0.55473   0.55904   0.57569   0.82838
     Eigenvalues ---    0.85182
 RFO step:  Lambda=-3.28792095D-02 EMin= 4.30286494D-03
 Linear search not attempted -- first point.
 Maximum step size (   0.300) exceeded in Quadratic search.
    -- Step size scaled by   0.888
 Iteration  1 RMS(Cart)=  0.04798635 RMS(Int)=  0.00356093
 Iteration  2 RMS(Cart)=  0.00418997 RMS(Int)=  0.00009206
 Iteration  3 RMS(Cart)=  0.00004834 RMS(Int)=  0.00008565
 Iteration  4 RMS(Cart)=  0.00000001 RMS(Int)=  0.00008565
 Variable       Old X    -DE/DX   Delta X   Delta X   Delta X     New X
                                 (Linear)    (Quad)   (Total)
    R1        2.71490  -0.01372   0.00000  -0.03038  -0.03063   2.68427
    R2        2.59331   0.03264   0.00000   0.05412   0.05412   2.64743
    R3        2.62545  -0.00931   0.00000  -0.01668  -0.01678   2.60867
    R4        2.68957  -0.00449   0.00000  -0.00980  -0.00997   2.67960
    R5        2.62150   0.03528   0.00000   0.06089   0.06093   2.68242
    R6        2.57795   0.01200   0.00000   0.01896   0.01896   2.59690
    R7        2.04766   0.00270   0.00000   0.00616   0.00616   2.05383
    R8        2.71191   0.00669   0.00000   0.01430   0.01446   2.72637
    R9        2.55918   0.00019   0.00000   0.00030   0.00030   2.55947
   R10        2.64644  -0.00177   0.00000  -0.00230  -0.00213   2.64430
   R11        2.52918  -0.01777   0.00000  -0.02594  -0.02594   2.50324
   R12        2.04945   0.00030   0.00000   0.00069   0.00069   2.05014
   R13        2.69732  -0.03785   0.00000  -0.07397  -0.07386   2.62346
   R14        2.52202   0.03923   0.00000   0.05736   0.05739   2.57941
   R15        2.88254  -0.00680   0.00000  -0.01821  -0.01821   2.86433
   R16        2.04038   0.00097   0.00000   0.00218   0.00218   2.04256
   R17        1.81414   0.00469   0.00000   0.00709   0.00709   1.82123
   R18        1.91741  -0.00479   0.00000  -0.00877  -0.00877   1.90864
   R19        2.36420   0.01655   0.00000   0.01706   0.01706   2.38126
   R20        2.35236   0.01846   0.00000   0.01853   0.01853   2.37090
    A1        2.14210   0.00389   0.00000   0.01253   0.01246   2.15456
    A2        1.86880  -0.00680   0.00000  -0.02457  -0.02470   1.84410
    A3        2.27228   0.00291   0.00000   0.01204   0.01225   2.28453
    A4        2.08375  -0.00711   0.00000  -0.02424  -0.02456   2.05918
    A5        1.86755   0.00544   0.00000   0.01489   0.01497   1.88253
    A6        2.33189   0.00167   0.00000   0.00935   0.00959   2.34147
    A7        2.07047   0.00273   0.00000   0.00558   0.00538   2.07585
    A8        2.11646  -0.00273   0.00000  -0.00910  -0.00900   2.10746
    A9        2.09625   0.00001   0.00000   0.00352   0.00362   2.09987
   A10        2.09986   0.01486   0.00000   0.04566   0.04579   2.14564
   A11        2.10677  -0.00272   0.00000  -0.00806  -0.00812   2.09865
   A12        2.07656  -0.01213   0.00000  -0.03760  -0.03767   2.03889
   A13        2.14005  -0.02325   0.00000  -0.07171  -0.07140   2.06865
   A14        1.98831   0.01784   0.00000   0.05537   0.05522   2.04352
   A15        2.15483   0.00541   0.00000   0.01634   0.01618   2.17101
   A16        2.03015   0.00888   0.00000   0.03219   0.03234   2.06248
   A17        2.14108  -0.00211   0.00000  -0.00534  -0.00542   2.13566
   A18        2.11196  -0.00678   0.00000  -0.02684  -0.02692   2.08504
   A19        1.90373  -0.00638   0.00000  -0.01752  -0.01745   1.88628
   A20        2.28668   0.00272   0.00000   0.00729   0.00726   2.29394
   A21        2.09278   0.00366   0.00000   0.01023   0.01019   2.10297
   A22        1.86972   0.00030   0.00000   0.00097   0.00106   1.87077
   A23        2.24943  -0.00096   0.00000  -0.00422  -0.00426   2.24516
   A24        2.16404   0.00066   0.00000   0.00325   0.00321   2.16725
   A25        2.09440  -0.04565   0.00000  -0.21015  -0.21015   1.88425
   A26        1.91498   0.00744   0.00000   0.02623   0.02612   1.94110
   A27        2.25358  -0.00669   0.00000  -0.02680  -0.02674   2.22683
   A28        2.11463  -0.00075   0.00000   0.00057   0.00063   2.11525
   A29        1.98042   0.01054   0.00000   0.03307   0.03307   2.01349
   A30        2.00667   0.01420   0.00000   0.04458   0.04458   2.05124
   A31        2.29610  -0.02474   0.00000  -0.07765  -0.07765   2.21845
    D1       -0.00000  -0.00000   0.00000  -0.00000  -0.00000  -0.00001
    D2        3.14159  -0.00000   0.00000  -0.00000  -0.00000   3.14159
    D3       -3.14159   0.00000   0.00000   0.00000   0.00000  -3.14159
    D4        0.00000   0.00000   0.00000   0.00000   0.00000   0.00000
    D5        0.00000   0.00000   0.00000   0.00000   0.00000   0.00001
    D6       -3.14159  -0.00000   0.00000  -0.00000  -0.00000  -3.14159
    D7        3.14159  -0.00000   0.00000  -0.00000  -0.00000   3.14159
    D8       -0.00000  -0.00000   0.00000  -0.00001  -0.00001  -0.00001
    D9       -0.00000   0.00000   0.00000   0.00001   0.00001   0.00001
   D10        3.14159  -0.00000   0.00000  -0.00001  -0.00001   3.14158
   D11       -3.14159   0.00000   0.00000   0.00002   0.00002  -3.14157
   D12        0.00000  -0.00000   0.00000  -0.00001  -0.00001  -0.00001
   D13        0.00000  -0.00000   0.00000  -0.00000  -0.00000   0.00000
   D14       -3.14159  -0.00000   0.00000  -0.00000  -0.00000  -3.14159
   D15       -3.14159  -0.00000   0.00000  -0.00000  -0.00000  -3.14159
   D16        0.00000  -0.00000   0.00000  -0.00000  -0.00000   0.00000
   D17       -0.00000  -0.00000   0.00000  -0.00001  -0.00002  -0.00002
   D18        3.14159   0.00000   0.00000   0.00000   0.00000   3.14159
   D19        3.14159  -0.00000   0.00000  -0.00001  -0.00001   3.14158
   D20       -0.00000   0.00000   0.00000   0.00000   0.00000  -0.00000
   D21        0.00000   0.00000   0.00000   0.00000   0.00000   0.00000
   D22       -3.14159  -0.00000   0.00000  -0.00000  -0.00000   3.14159
   D23        3.14159   0.00000   0.00000   0.00000   0.00000  -3.14159
   D24        0.00000  -0.00000   0.00000  -0.00000  -0.00000  -0.00000
   D25       -0.00000   0.00000   0.00000   0.00000   0.00000  -0.00000
   D26        3.14159   0.00000   0.00000   0.00001   0.00001  -3.14159
   D27        3.14159   0.00000   0.00000   0.00000   0.00000  -3.14159
   D28       -0.00000   0.00000   0.00000   0.00001   0.00001   0.00001
   D29        3.14151   0.00000   0.00000   0.00002   0.00002   3.14153
   D30       -0.00008   0.00000   0.00000   0.00002   0.00002  -0.00007
   D31        0.00000  -0.00000   0.00000  -0.00000  -0.00000  -0.00000
   D32       -3.14159   0.00000   0.00000   0.00000   0.00000  -3.14159
   D33       -3.14159  -0.00000   0.00000  -0.00001  -0.00001   3.14158
   D34       -0.00000  -0.00000   0.00000  -0.00000  -0.00000  -0.00001
   D35        0.00000   0.00000   0.00000   0.00002   0.00002   0.00003
   D36       -3.14159   0.00000   0.00000   0.00001   0.00001  -3.14158
   D37        3.14158   0.00000   0.00000   0.00002   0.00002  -3.14158
   D38       -0.00001   0.00000   0.00000   0.00001   0.00001  -0.00000
   D39       -0.00000  -0.00000   0.00000  -0.00002  -0.00002  -0.00002
   D40       -3.14159   0.00000   0.00000   0.00000   0.00000  -3.14159
   D41       -3.14158  -0.00000   0.00000  -0.00002  -0.00002   3.14158
   D42        0.00001   0.00000   0.00000   0.00000   0.00000   0.00002
   D43        3.14116   0.00006   0.00000   0.00142   0.00142  -3.14061
   D44        0.00041  -0.00006   0.00000  -0.00140  -0.00140  -0.00099
   D45       -0.00045   0.00006   0.00000   0.00142   0.00142   0.00097
   D46       -3.14120  -0.00006   0.00000  -0.00140  -0.00140   3.14059
         Item               Value     Threshold  Converged?
 Maximum Force            0.045648     0.000450     NO 
 RMS     Force            0.010903     0.000300     NO 
 Maximum Displacement     0.262877     0.001800     NO 
 RMS     Displacement     0.050053     0.001200     NO 
 Predicted change in Energy=-1.771093D-02
 GradGradGradGradGradGradGradGradGradGradGradGradGradGradGradGradGradGrad

                          Input orientation:                          
 ---------------------------------------------------------------------
 Center     Atomic      Atomic             Coordinates (Angstroms)
 Number     Number       Type             X           Y           Z
 ---------------------------------------------------------------------
      1          6           0       -0.118152    0.599482   -0.000088
      2          6           0       -0.133039   -0.820896   -0.000088
      3          6           0       -1.392150   -1.473057   -0.000006
      4          6           0       -2.535700   -0.710967    0.000066
      5          6           0       -2.516963    0.731645    0.000062
      6          6           0       -1.278949    1.383850   -0.000019
      7          6           0        2.022497   -0.142276   -0.000250
      8          6           0        1.213388   -1.270396   -0.000174
      9          1           0       -1.455973   -2.558019    0.000000
     10          1           0       -1.247088    2.468268   -0.000022
     11          1           0        1.586205   -2.284941   -0.000195
     12          8           0       -3.752255   -1.306310    0.000145
     13          8           0       -3.688416    1.350048    0.000143
     14          7           0        1.214894    0.958134   -0.000179
     15          1           0        1.601888    1.891059   -0.000219
     16          6           0        3.530519    0.010481   -0.000370
     17          8           0        3.952818    1.197720    0.000705
     18          8           0        4.219550   -1.038002    0.000688
     19          1           0       -4.422159   -0.613455    0.000249
 ---------------------------------------------------------------------
                    Distance matrix (angstroms):
                    1          2          3          4          5
     1  C    0.000000
     2  C    1.420456   0.000000
     3  C    2.432795   1.417983   0.000000
     4  C    2.749875   2.405175   1.374222   0.000000
     5  C    2.402449   2.844904   2.475059   1.442734   0.000000
     6  C    1.400958   2.484757   2.859149   2.442884   1.399303
     7  C    2.265520   2.259836   3.664804   4.593535   4.622817
     8  C    2.295526   1.419477   2.613408   3.790596   4.233637
     9  H    3.429224   2.183518   1.086838   2.139489   3.456529
    10  H    2.183314   3.472709   3.943994   3.430461   2.151382
    11  H    3.350333   2.258147   3.087030   4.412198   5.092719
    12  O    4.103505   3.651624   2.365988   1.354415   2.383109
    13  O    3.648306   4.165778   3.639060   2.361469   1.324660
    14  N    1.380450   2.232010   3.564740   4.105222   3.738724
    15  H    2.150978   3.219421   4.503503   4.887757   4.278922
    16  C    3.695906   3.756707   5.141358   6.108969   6.090330
    17  O    4.114692   4.557306   5.975093   6.763428   6.486548
    18  O    4.636487   4.358000   5.628540   6.763162   6.965075
    19  H    4.471654   4.294133   3.149582   1.888978   2.332180
                    6          7          8          9         10
     6  C    0.000000
     7  C    3.637115   0.000000
     8  C    3.640984   1.388276   0.000000
     9  H    3.945843   4.235040   2.963691   0.000000
    10  H    1.084886   4.183913   4.475662   5.030626   0.000000
    11  H    4.655012   2.186633   1.080877   3.054410   5.533584
    12  O    3.654341   5.890903   4.965773   2.615280   4.530266
    13  O    2.409704   5.902674   5.558274   4.500755   2.685238
    14  N    2.529918   1.364963   2.228530   4.415525   2.888228
    15  H    2.925146   2.076382   3.185236   5.398593   2.906859
    16  C    5.001712   1.515740   2.647592   5.609126   5.372732
    17  O    5.235077   2.349837   3.687286   6.584877   5.352879
    18  O    6.008233   2.372629   3.015132   5.875544   6.494464
    19  H    3.724110   6.461857   5.673708   3.546772   4.424714
                   11         12         13         14         15
    11  H    0.000000
    12  O    5.427419   0.000000
    13  O    6.405839   2.657125   0.000000
    14  N    3.264262   5.458963   4.918948   0.000000
    15  H    4.176030   6.236186   5.317895   1.010007   0.000000
    16  C    3.008209   7.400861   7.342170   2.502032   2.693732
    17  O    4.210676   8.101748   7.642753   2.748387   2.451040
    18  O    2.913652   7.976320   8.260673   3.607287   3.928302
    19  H    6.236530   0.963753   2.096121   5.852030   6.523935
                   16         17         18         19
    16  C    0.000000
    17  O    1.260109   0.000000
    18  O    1.254624   2.251577   0.000000
    19  H    7.977116   8.568582   8.652131   0.000000
 Stoichiometry    C9H5NO4(2-)
 Framework group  C1[X(C9H5NO4)]
 Deg. of freedom    51
 Full point group                 C1      NOp   1
 Largest Abelian subgroup         C1      NOp   1
 Largest concise Abelian subgroup C1      NOp   1
                         Standard orientation:                         
 ---------------------------------------------------------------------
 Center     Atomic      Atomic             Coordinates (Angstroms)
 Number     Number       Type             X           Y           Z
 ---------------------------------------------------------------------
      1          6           0       -0.146215    0.630238   -0.000158
      2          6           0       -0.170751   -0.790006   -0.000157
      3          6           0       -1.434263   -1.433598   -0.000076
      4          6           0       -2.572609   -0.663757   -0.000003
      5          6           0       -2.544073    0.778694   -0.000007
      6          6           0       -1.301657    1.422474   -0.000088
      7          6           0        1.989345   -0.126045   -0.000319
      8          6           0        1.172591   -1.248642   -0.000243
      9          1           0       -1.505455   -2.518102   -0.000070
     10          1           0       -1.262429    2.506651   -0.000092
     11          1           0        1.538508   -2.265697   -0.000265
     12          8           0       -3.793181   -1.250822    0.000075
     13          8           0       -3.711298    1.405041    0.000074
     14          7           0        1.189237    0.979825   -0.000249
     15          1           0        1.582559    1.910100   -0.000289
     16          6           0        3.498371    0.016463   -0.000439
     17          8           0        3.928726    1.200806    0.000636
     18          8           0        4.180263   -1.036676    0.000618
     19          1           0       -4.458362   -0.553432    0.000179
 ---------------------------------------------------------------------
 Rotational constants (GHZ):      2.2477652      0.3512133      0.3037520
 Standard basis: 6-31+G(d,p) (6D, 7F)
 There are   291 symmetry adapted cartesian basis functions of A   symmetry.
 There are   291 symmetry adapted basis functions of A   symmetry.
   291 basis functions,   483 primitive gaussians,   291 cartesian basis functions
    50 alpha electrons       50 beta electrons
       nuclear repulsion energy       808.6406843297 Hartrees.
 NAtoms=   19 NActive=   19 NUniq=   19 SFac= 1.00D+00 NAtFMM=   60 NAOKFM=F Big=F
 Integral buffers will be    131072 words long.
 Raffenetti 2 integral format.
 Two-electron integral symmetry is turned on.
 ------------------------------------------------------------------------------
 Polarizable Continuum Model (PCM)
 =================================
 Model                : PCM (using non-symmetric T matrix).
 Atomic radii         : UFF (Universal Force Field).
 Polarization charges : Total charges.
 Charge compensation  : None.
 Solution method      : On-the-fly selection.
 Cavity type          : Scaled VdW (van der Waals Surface) (Alpha=1.100).
 Cavity algorithm     : GePol (No added spheres)
                        Default sphere list used, NSphG=   19.
                        Lebedev-Laikov grids with approx.  5.0 points / Ang**2.
                        Smoothing algorithm: Karplus/York (Gamma=1.0000).
                        Polarization charges: spherical gaussians, with
                                              point-specific exponents (IZeta= 3).
                        Self-potential: point-specific (ISelfS= 7).
                        Self-field    : sphere-specific E.n sum rule (ISelfD= 2).
 1st derivatives      : Analytical E(r).r(x)/FMM algorithm (CHGder, D1EAlg=3).
                        Cavity 1st derivative terms included.
 Solvent              : Water, Eps=  78.355300 Eps(inf)=   1.777849
 ------------------------------------------------------------------------------
 Spheres list:
 ISph  on   Nord     Re0    Alpha      Xe            Ye            Ze
    1   C      1    1.9255  1.100     -0.146215      0.630238     -0.000158
    2   C      2    1.9255  1.100     -0.170751     -0.790006     -0.000157
    3   C      3    1.9255  1.100     -1.434263     -1.433598     -0.000076
    4   C      4    1.9255  1.100     -2.572609     -0.663757     -0.000003
    5   C      5    1.9255  1.100     -2.544073      0.778694     -0.000007
    6   C      6    1.9255  1.100     -1.301657      1.422474     -0.000088
    7   C      7    1.9255  1.100      1.989345     -0.126045     -0.000319
    8   C      8    1.9255  1.100      1.172591     -1.248642     -0.000243
    9   H      9    1.4430  1.100     -1.505455     -2.518102     -0.000070
   10   H     10    1.4430  1.100     -1.262429      2.506651     -0.000092
   11   H     11    1.4430  1.100      1.538508     -2.265697     -0.000265
   12   O     12    1.7500  1.100     -3.793181     -1.250822      0.000075
   13   O     13    1.7500  1.100     -3.711298      1.405041      0.000074
   14   N     14    1.8300  1.100      1.189237      0.979825     -0.000249
   15   H     15    1.4430  1.100      1.582559      1.910100     -0.000289
   16   C     16    1.9255  1.100      3.498371      0.016463     -0.000439
   17   O     17    1.7500  1.100      3.928726      1.200806      0.000636
   18   O     18    1.7500  1.100      4.180263     -1.036676      0.000618
   19   H     19    1.4430  1.100     -4.458362     -0.553432      0.000179
 ------------------------------------------------------------------------------
 One-electron integrals computed using PRISM.
 NBasis=   291 RedAO= T EigKep=  1.58D-06  NBF=   291
 NBsUse=   290 1.00D-06 EigRej=  8.61D-07 NBFU=   290
 Initial guess from the checkpoint file:  "K2DA.chk"
 B after Tr=    -0.000000    0.000000   -0.000000
         Rot=    0.999989   -0.000006    0.000016   -0.004690 Ang=  -0.54 deg.
 ExpMin= 4.38D-02 ExpMax= 5.48D+03 ExpMxC= 8.25D+02 IAcc=3 IRadAn=         5 AccDes= 0.00D+00
 Harris functional with IExCor=20419 and IRadAn=       5 diagonalized for initial guess.
 HarFok:  IExCor=20419 AccDes= 0.00D+00 IRadAn=         5 IDoV= 1 UseB2=F ITyADJ=14
 ICtDFT=  3500011 ScaDFX=  1.000000  1.000000  1.000000  1.000000
 FoFCou: FMM=F IPFlag=           0 FMFlag=      100000 FMFlg1=           0
         NFxFlg=           0 DoJE=T BraDBF=F KetDBF=T FulRan=T
         wScrn=  0.000000 ICntrl=     500 IOpCl=  0 I1Cent=   200000004 NGrid=           0
         NMat0=    1 NMatS0=      1 NMatT0=    0 NMatD0=    1 NMtDS0=    0 NMtDT0=    0
 Petite list used in FoFCou.
 Keep R1 ints in memory in canonical form, NReq=1817830489.
 Requested convergence on RMS density matrix=1.00D-08 within 128 cycles.
 Requested convergence on MAX density matrix=1.00D-06.
 Requested convergence on             energy=1.00D-06.
 No special actions if energy rises.
 Inv3:  Mode=1 IEnd=     9915372.
 Iteration    1 A*A^-1 deviation from unit magnitude is 8.88D-15 for   1305.
 Iteration    1 A*A^-1 deviation from orthogonality  is 8.50D-15 for   1408   1187.
 Iteration    1 A^-1*A deviation from unit magnitude is 8.44D-15 for   1010.
 Iteration    1 A^-1*A deviation from orthogonality  is 6.55D-10 for   1502   1490.
 Iteration    2 A*A^-1 deviation from unit magnitude is 8.22D-15 for    496.
 Iteration    2 A*A^-1 deviation from orthogonality  is 7.42D-15 for   1542    309.
 Iteration    2 A^-1*A deviation from unit magnitude is 1.55D-15 for    820.
 Iteration    2 A^-1*A deviation from orthogonality  is 7.56D-16 for   1798   1052.
 Error on total polarization charges =  0.03127
 SCF Done:  E(RCAM-B3LYP) =  -701.660548209     A.U. after   15 cycles
            NFock= 15  Conv=0.61D-08     -V/T= 2.0089
 D1PCM: PCM CHGder 1st derivatives, ID1Alg=3 FixD1E=F DoIter=F DoCFld=F I1PDM=0.
 Calling FoFJK, ICntrl=      2127 FMM=F ISym2X=0 I1Cent= 0 IOpClX= 0 NMat=1 NMatS=1 NMatT=0.
 ***** Axes restored to original set *****
 -------------------------------------------------------------------
 Center     Atomic                   Forces (Hartrees/Bohr)
 Number     Number              X              Y              Z
 -------------------------------------------------------------------
      1        6           0.013323889   -0.008369571   -0.000002938
      2        6          -0.012731942    0.004170603    0.000005137
      3        6          -0.000195170    0.000891610    0.000001814
      4        6           0.016837212    0.002192243   -0.000001133
      5        6          -0.020068443    0.014480320    0.000002528
      6        6          -0.001601184   -0.003059338    0.000002961
      7        6           0.007769983   -0.018973378   -0.000079961
      8        6           0.015537587    0.006884472   -0.000007518
      9        1          -0.001056438   -0.000192660    0.000000193
     10        1           0.000487158    0.000649045   -0.000000167
     11        1          -0.001831044   -0.000859976   -0.000001913
     12        8          -0.008460623   -0.018177228    0.000000362
     13        8           0.011921408   -0.010674751   -0.000001227
     14        7          -0.006329683    0.016780879   -0.000009784
     15        1          -0.001701348   -0.000149115    0.000002722
     16        6          -0.018373842   -0.000151912    0.000305361
     17        8           0.003800528    0.005306780   -0.000107230
     18        8           0.004623650   -0.004682077   -0.000108698
     19        1          -0.001951698    0.013934055   -0.000000509
 -------------------------------------------------------------------
 Cartesian Forces:  Max     0.020068443 RMS     0.008013024

 GradGradGradGradGradGradGradGradGradGradGradGradGradGradGradGradGradGrad
 Berny optimization.
 Using GEDIIS/GDIIS optimizer.
 FormGI is forming the generalized inverse of G from B-inverse, IUseBI=4.
 GSVD:  received Info=                   1 from GESDD.
 Internal  Forces:  Max     0.015525402 RMS     0.004028616
 Search for a local minimum.
 Step number   2 out of a maximum of  107
 All quantities printed in internal units (Hartrees-Bohrs-Radians)
 Mixed Optimization -- RFO/linear search
 Update second derivatives using D2CorX and points    1    2
 DE= -1.82D-02 DEPred=-1.77D-02 R= 1.03D+00
 TightC=F SS=  1.41D+00  RLast= 3.00D-01 DXNew= 5.0454D-01 9.0003D-01
 Trust test= 1.03D+00 RLast= 3.00D-01 DXMaxT set to 5.05D-01
 ITU=  1  0
 Use linear search instead of GDIIS.
     Eigenvalues ---    0.00430   0.00430   0.01470   0.01783   0.01840
     Eigenvalues ---    0.01874   0.01984   0.02016   0.02064   0.02108
     Eigenvalues ---    0.02114   0.02214   0.02251   0.02289   0.02297
     Eigenvalues ---    0.02305   0.13988   0.16000   0.16000   0.16000
     Eigenvalues ---    0.16132   0.22638   0.23207   0.23641   0.24306
     Eigenvalues ---    0.24532   0.25000   0.25000   0.25000   0.25000
     Eigenvalues ---    0.28615   0.30543   0.35451   0.35573   0.35664
     Eigenvalues ---    0.36028   0.39524   0.39896   0.40561   0.42832
     Eigenvalues ---    0.44553   0.45203   0.47294   0.47940   0.51318
     Eigenvalues ---    0.53672   0.54757   0.56603   0.60159   0.82489
     Eigenvalues ---    0.84888
 RFO step:  Lambda=-4.52784324D-03 EMin= 4.30286494D-03
 Quartic linear search produced a step of  0.27497.
 Iteration  1 RMS(Cart)=  0.03623192 RMS(Int)=  0.00229039
 Iteration  2 RMS(Cart)=  0.00243869 RMS(Int)=  0.00005547
 Iteration  3 RMS(Cart)=  0.00001519 RMS(Int)=  0.00005462
 Iteration  4 RMS(Cart)=  0.00000000 RMS(Int)=  0.00005462
 Variable       Old X    -DE/DX   Delta X   Delta X   Delta X     New X
                                 (Linear)    (Quad)   (Total)
    R1        2.68427  -0.00262  -0.00842  -0.00339  -0.01184   2.67244
    R2        2.64743   0.00422   0.01488   0.00090   0.01577   2.66320
    R3        2.60867  -0.00363  -0.00461  -0.00622  -0.01079   2.59788
    R4        2.67960   0.00064  -0.00274   0.00355   0.00076   2.68036
    R5        2.68242   0.00800   0.01675   0.00899   0.02571   2.70814
    R6        2.59690  -0.00222   0.00521  -0.00907  -0.00385   2.59305
    R7        2.05383   0.00025   0.00169  -0.00031   0.00138   2.05521
    R8        2.72637  -0.00014   0.00398  -0.00325   0.00078   2.72715
    R9        2.55947   0.01121   0.00008   0.02608   0.02617   2.58564
   R10        2.64430   0.00083  -0.00059   0.00293   0.00239   2.64669
   R11        2.50324  -0.01553  -0.00713  -0.02939  -0.03653   2.46672
   R12        2.05014   0.00066   0.00019   0.00222   0.00241   2.05255
   R13        2.62346  -0.00807  -0.02031  -0.01009  -0.03044   2.59302
   R14        2.57941   0.01184   0.01578   0.01624   0.03202   2.61143
   R15        2.86433  -0.00985  -0.00501  -0.03765  -0.04265   2.82168
   R16        2.04256   0.00018   0.00060   0.00019   0.00079   2.04335
   R17        1.82123   0.01138   0.00195   0.02461   0.02656   1.84778
   R18        1.90864  -0.00079  -0.00241  -0.00057  -0.00298   1.90565
   R19        2.38126   0.00627   0.00469   0.00666   0.01135   2.39261
   R20        2.37090   0.00646   0.00510   0.00643   0.01153   2.38242
    A1        2.15456  -0.00224   0.00342  -0.01318  -0.00983   2.14472
    A2        1.84410   0.00524  -0.00679   0.03074   0.02402   1.86812
    A3        2.28453  -0.00300   0.00337  -0.01756  -0.01419   2.27034
    A4        2.05918   0.00155  -0.00675   0.01378   0.00693   2.06612
    A5        1.88253  -0.00267   0.00412  -0.01890  -0.01475   1.86778
    A6        2.34147   0.00112   0.00264   0.00512   0.00781   2.34929
    A7        2.07585  -0.00122   0.00148  -0.00949  -0.00806   2.06779
    A8        2.10746   0.00169  -0.00248   0.01462   0.01217   2.11963
    A9        2.09987  -0.00046   0.00100  -0.00513  -0.00411   2.09577
   A10        2.14564   0.00337   0.01259   0.00610   0.01874   2.16439
   A11        2.09865   0.00686  -0.00223   0.03648   0.03422   2.13288
   A12        2.03889  -0.01023  -0.01036  -0.04258  -0.05297   1.98592
   A13        2.06865  -0.00353  -0.01963  -0.00250  -0.02202   2.04663
   A14        2.04352  -0.00307   0.01518  -0.02711  -0.01198   2.03154
   A15        2.17101   0.00661   0.00445   0.02962   0.03401   2.20502
   A16        2.06248   0.00207   0.00889   0.00529   0.01424   2.07672
   A17        2.13566  -0.00152  -0.00149  -0.00904  -0.01056   2.12511
   A18        2.08504  -0.00055  -0.00740   0.00375  -0.00368   2.08136
   A19        1.88628   0.00156  -0.00480   0.01458   0.00973   1.89601
   A20        2.29394   0.00068   0.00200   0.00031   0.00233   2.29626
   A21        2.10297  -0.00224   0.00280  -0.01489  -0.01206   2.09091
   A22        1.87077   0.00066   0.00029   0.00316   0.00337   1.87414
   A23        2.24516  -0.00239  -0.00117  -0.01660  -0.01773   2.22743
   A24        2.16725   0.00173   0.00088   0.01345   0.01437   2.18162
   A25        1.88425  -0.01509  -0.05778  -0.06481  -0.12259   1.76166
   A26        1.94110  -0.00479   0.00718  -0.02958  -0.02237   1.91872
   A27        2.22683   0.00095  -0.00735   0.00702  -0.00034   2.22649
   A28        2.11525   0.00383   0.00017   0.02256   0.02272   2.13797
   A29        2.01349   0.00185   0.00909   0.00222   0.01105   2.02454
   A30        2.05124   0.00060   0.01226  -0.00648   0.00552   2.05676
   A31        2.21845  -0.00245  -0.02135   0.00434  -0.01727   2.20118
    D1       -0.00001   0.00000  -0.00000   0.00002   0.00002   0.00002
    D2        3.14159  -0.00000  -0.00000  -0.00000  -0.00000   3.14159
    D3       -3.14159  -0.00000   0.00000  -0.00003  -0.00003   3.14157
    D4        0.00000  -0.00000   0.00000  -0.00006  -0.00005  -0.00005
    D5        0.00001  -0.00000   0.00000  -0.00004  -0.00004  -0.00004
    D6       -3.14159  -0.00000  -0.00000  -0.00002  -0.00002   3.14158
    D7        3.14159   0.00000  -0.00000   0.00002   0.00002  -3.14158
    D8       -0.00001   0.00000  -0.00000   0.00005   0.00005   0.00004
    D9        0.00001  -0.00000   0.00000  -0.00009  -0.00009  -0.00008
   D10        3.14158   0.00000  -0.00000   0.00013   0.00013  -3.14148
   D11       -3.14157  -0.00000   0.00000  -0.00015  -0.00015   3.14147
   D12       -0.00001   0.00000  -0.00000   0.00007   0.00007   0.00006
   D13        0.00000   0.00000  -0.00000   0.00001   0.00001   0.00001
   D14       -3.14159  -0.00000  -0.00000  -0.00001  -0.00001   3.14158
   D15       -3.14159   0.00000  -0.00000   0.00005   0.00005  -3.14155
   D16        0.00000   0.00000  -0.00000   0.00002   0.00002   0.00002
   D17       -0.00002   0.00000  -0.00000   0.00018   0.00018   0.00016
   D18        3.14159   0.00000   0.00000   0.00003   0.00003  -3.14156
   D19        3.14158   0.00000  -0.00000   0.00015   0.00015  -3.14146
   D20       -0.00000  -0.00000   0.00000   0.00000   0.00000   0.00000
   D21        0.00000  -0.00000   0.00000  -0.00003  -0.00003  -0.00003
   D22        3.14159  -0.00000  -0.00000  -0.00003  -0.00003   3.14156
   D23       -3.14159  -0.00000   0.00000  -0.00000  -0.00000   3.14159
   D24       -0.00000  -0.00000  -0.00000  -0.00001  -0.00001  -0.00001
   D25       -0.00000   0.00000   0.00000   0.00001   0.00001   0.00001
   D26       -3.14159  -0.00000   0.00000  -0.00001  -0.00001   3.14159
   D27       -3.14159   0.00000   0.00000   0.00001   0.00001  -3.14158
   D28        0.00001   0.00000   0.00000  -0.00000  -0.00000   0.00001
   D29        3.14153   0.00000   0.00000   0.00005   0.00006   3.14158
   D30       -0.00007   0.00000   0.00000   0.00005   0.00005  -0.00002
   D31       -0.00000   0.00000  -0.00000   0.00003   0.00003   0.00002
   D32       -3.14159   0.00000   0.00000   0.00000  -0.00000  -3.14159
   D33        3.14158   0.00000  -0.00000   0.00005   0.00004  -3.14156
   D34       -0.00001   0.00000  -0.00000   0.00002   0.00002   0.00001
   D35        0.00003  -0.00000   0.00001  -0.00023  -0.00023  -0.00021
   D36       -3.14158  -0.00000   0.00000  -0.00010  -0.00009   3.14151
   D37       -3.14158  -0.00000   0.00001  -0.00020  -0.00020   3.14141
   D38       -0.00000  -0.00000   0.00000  -0.00006  -0.00006  -0.00006
   D39       -0.00002   0.00000  -0.00001   0.00021   0.00020   0.00018
   D40       -3.14159   0.00000   0.00000   0.00000   0.00000  -3.14159
   D41        3.14158   0.00000  -0.00001   0.00018   0.00017  -3.14143
   D42        0.00002  -0.00000   0.00000  -0.00003  -0.00003  -0.00001
   D43       -3.14061  -0.00012   0.00039  -0.02040  -0.02000   3.12257
   D44       -0.00099   0.00012  -0.00038   0.02018   0.01979   0.01880
   D45        0.00097  -0.00012   0.00039  -0.02036  -0.01997  -0.01900
   D46        3.14059   0.00012  -0.00038   0.02022   0.01983  -3.12277
         Item               Value     Threshold  Converged?
 Maximum Force            0.015525     0.000450     NO 
 RMS     Force            0.004029     0.000300     NO 
 Maximum Displacement     0.257772     0.001800     NO 
 RMS     Displacement     0.036941     0.001200     NO 
 Predicted change in Energy=-3.402501D-03
 GradGradGradGradGradGradGradGradGradGradGradGradGradGradGradGradGradGrad

                          Input orientation:                          
 ---------------------------------------------------------------------
 Center     Atomic      Atomic             Coordinates (Angstroms)
 Number     Number       Type             X           Y           Z
 ---------------------------------------------------------------------
      1          6           0       -0.112095    0.579882    0.002332
      2          6           0       -0.131106   -0.834182    0.002154
      3          6           0       -1.387973   -1.491524    0.000322
      4          6           0       -2.526705   -0.725903   -0.001210
      5          6           0       -2.529110    0.717240   -0.001044
      6          6           0       -1.285200    1.360884    0.000793
      7          6           0        2.023782   -0.150217    0.005403
      8          6           0        1.233479   -1.271940    0.003988
      9          1           0       -1.460735   -2.576657    0.000095
     10          1           0       -1.249298    2.446452    0.000971
     11          1           0        1.600396   -2.289080    0.004359
     12          8           0       -3.777830   -1.279815   -0.003064
     13          8           0       -3.699291    1.295656   -0.002644
     14          7           0        1.207620    0.964926    0.004257
     15          1           0        1.573987    1.904450    0.004967
     16          6           0        3.507644    0.016220    0.007770
     17          8           0        3.932374    1.208788   -0.013023
     18          8           0        4.217079   -1.025764   -0.012227
     19          1           0       -4.336102   -0.477048   -0.003751
 ---------------------------------------------------------------------
                    Distance matrix (angstroms):
                    1          2          3          4          5
     1  C    0.000000
     2  C    1.414192   0.000000
     3  C    2.432816   1.418385   0.000000
     4  C    2.745073   2.398046   1.372184   0.000000
     5  C    2.420918   2.856106   2.486128   1.443144   0.000000
     6  C    1.409306   2.479969   2.854259   2.428171   1.400569
     7  C    2.257216   2.260832   3.665952   4.586762   4.634798
     8  C    2.289065   1.433084   2.630635   3.799627   4.256047
     9  H    3.432575   2.191834   1.087569   2.135786   3.462828
    10  H    2.185707   3.465965   3.940417   3.419884   2.151302
    11  H    3.341193   2.261600   3.092970   4.413221   5.107916
    12  O    4.110489   3.673855   2.399219   1.368261   2.355321
    13  O    3.657914   4.155499   3.620852   2.337020   1.305332
    14  N    1.374740   2.242540   3.573691   4.099282   3.744934
    15  H    2.144145   3.226059   4.506203   4.871803   4.271406
    16  C    3.663367   3.736806   5.122540   6.079818   6.077328
    17  O    4.093103   4.548168   5.966403   6.742616   6.480166
    18  O    4.617364   4.352427   5.624384   6.750456   6.967729
    19  H    4.354236   4.220138   3.117794   1.826432   2.165998
                    6          7          8          9         10
     6  C    0.000000
     7  C    3.637693   0.000000
     8  C    3.643558   1.372167   0.000000
     9  H    3.941451   4.246116   2.993508   0.000000
    10  H    1.086161   4.178009   4.471088   5.027557   0.000000
    11  H    4.652839   2.180365   1.081297   3.074613   5.526846
    12  O    3.631324   5.910564   5.011321   2.655322   4.503172
    13  O    2.414974   5.902896   5.561008   4.472801   2.706808
    14  N    2.524073   1.381907   2.237016   4.434292   2.869037
    15  H    2.910400   2.103324   3.194589   5.412012   2.874842
    16  C    4.977904   1.493169   2.613656   5.604272   5.341776
    17  O    5.219809   2.343066   3.665834   6.589036   5.327451
    18  O    5.997610   2.361661   2.993782   5.885830   6.475934
    19  H    3.561743   6.368283   5.626024   3.560352   4.251498
                   11         12         13         14         15
    11  H    0.000000
    12  O    5.472110   0.000000
    13  O    6.398208   2.576669   0.000000
    14  N    3.277626   5.467507   4.918049   0.000000
    15  H    4.193613   6.227484   5.308309   1.008429   0.000000
    16  C    2.991992   7.399863   7.319630   2.488005   2.702675
    17  O    4.203987   8.101883   7.632167   2.735700   2.458915
    18  O    2.905731   7.998950   8.249727   3.608318   3.946186
    19  H    6.206894   0.977805   1.883616   5.728194   6.371872
                   16         17         18         19
    16  C    0.000000
    17  O    1.266115   0.000000
    18  O    1.260725   2.252616   0.000000
    19  H    7.859249   8.438592   8.570768   0.000000
 Stoichiometry    C9H5NO4(2-)
 Framework group  C1[X(C9H5NO4)]
 Deg. of freedom    51
 Full point group                 C1      NOp   1
 Largest Abelian subgroup         C1      NOp   1
 Largest concise Abelian subgroup C1      NOp   1
[...]
 000978,0.69707774,-0.02889494,-0.02103670,0.00000307,-0.09677819,-0.16
 736864,0.00001519,-0.03540776,0.75290848,0.00000193,0.00000231,0.00177
 841,0.00001206,0.00001485,-0.04584213,-0.00000243,-0.00007019,0.114378
 35,-0.01052546,0.01052163,-0.00000045,-0.05482169,-0.00068420,0.000001
 00,-0.31293892,0.16478414,-0.00001584,0.77801008,0.03120150,-0.0428391
 5,0.00000413,0.03577353,0.05304625,-0.00000697,0.09810752,-0.23699089,
 0.00002016,-0.10611443,0.61669194,-0.00000392,0.00000500,0.00454955,-0
 .00000291,-0.00000580,0.00024544,-0.00000768,0.00001855,-0.05016791,0.
 00000360,-0.00004987,0.12155509,-0.05850533,0.01733950,-0.00000206,-0.
 00611525,-0.01871552,0.00000220,0.02007282,0.02672655,-0.00000296,-0.0
 9072923,0.00896239,-0.00000123,0.75735165,-0.02025606,0.06068364,-0.00
 000568,-0.04116195,-0.03790232,0.00000500,0.07078663,-0.01364489,-0.00
 000057,-0.03889707,-0.19375767,0.00001366,0.02089365,0.58132588,0.0000
 0345,-0.00000686,-0.00721276,0.00000359,0.00000441,0.00296820,-0.00000
 660,0.00000024,-0.00404187,0.00000334,0.00001320,-0.06490427,-0.000012
 25,-0.00003946,0.15986272,-0.24019417,0.07755908,-0.00000514,0.0317713
 1,0.04726251,-0.00000497,-0.04563867,-0.00229479,0.00000099,0.01406736
 ,-0.06042457,0.00000657,-0.26535941,-0.07461745,0.00000838,0.67138139,
 0.11619138,-0.20128960,0.00001266,0.01928171,-0.02466583,0.00000289,0.
 00933821,-0.00311441,0.00000036,-0.03051430,-0.00701849,0.00000070,-0.
 10986264,-0.19812610,0.00001432,0.00551760,0.73422450,-0.00000943,0.00
 001395,-0.04107969,-0.00000236,0.00000306,0.00468938,-0.00000034,0.000
 00087,0.00441394,0.00000265,0.00000116,-0.00353435,0.00001174,0.000014
 13,-0.05304848,-0.00000701,-0.00006045,0.09464236,-0.07956758,0.006077
 11,0.00000573,-0.07497775,-0.00403125,0.00000592,0.01240029,0.00588476
 ,-0.00000094,-0.00290129,0.01921014,-0.00000194,0.00906101,-0.01632047
 ,0.00000095,-0.00047506,-0.00646050,0.00000085,0.73481599,0.01888406,0
 .00574236,-0.00000160,-0.04508983,0.01162586,0.00000235,0.01145131,0.0
 0029252,0.00000048,0.00099913,0.00684384,-0.00000087,-0.00886241,-0.00
 771236,0.00000125,0.00631150,-0.00364852,-0.00000037,0.07204988,0.6790
 4014,-0.00000012,0.00000149,0.01514278,0.00000657,0.00000094,0.0142943
 6,-0.00000074,-0.00000041,0.00189090,-0.00000093,-0.00000127,0.0008830
 4,-0.00000052,0.00000108,0.00036276,0.00000067,0.00000094,0.00043646,-
 0.00004511,-0.00006672,0.12100728,0.01233336,0.04837925,-0.00000531,-0
 .25072185,0.05570305,-0.00000606,-0.04089791,0.00522588,0.00000015,0.0
 0466568,-0.02231057,0.00000260,0.00414714,0.01846292,-0.00000194,-0.01
 142283,0.00060241,0.00000092,-0.18123377,-0.13541660,0.00003200,0.5846
 6598,0.02401984,-0.02890169,0.00000468,0.05954722,-0.13081306,0.000007
 44,-0.01618572,0.01515025,-0.00000198,-0.00285046,-0.00178774,0.000000
 54,0.00051441,-0.00089925,-0.00000029,-0.00266708,-0.00490823,0.000000
 96,-0.13707549,-0.30254055,0.00004192,-0.03240705,0.85572143,-0.000001
 09,0.00000279,0.00854113,-0.00000252,0.00000845,-0.05542734,0.00000172
 ,-0.00000212,-0.00168484,0.00000123,0.00000011,0.00232397,-0.00000045,
 0.00000015,-0.00181096,0.00000035,0.00000094,0.00214162,0.00003121,0.0
 0004486,-0.06297560,-0.00001804,-0.00010094,0.11789095,-0.00428189,-0.
 00102748,0.00000028,0.00584978,-0.02735963,0.00000287,-0.06116880,-0.0
 1709651,0.00000242,0.00653673,0.02661662,-0.00000305,-0.00422590,0.000
 17121,0.00000011,-0.00071698,0.00032406,-0.00000004,0.00039921,-0.0003
 9687,0.00000008,0.00156089,0.00106438,-0.00000019,0.05404985,-0.002337
 98,0.00163934,0.00000042,0.00134491,-0.00969820,0.00000119,-0.01456919
 ,-0.33784660,0.00003416,-0.00502397,-0.01540222,0.00000254,0.00173017,
 0.00232210,0.00000068,0.00034774,0.00011262,-0.00000011,-0.00078968,-0
 .00046706,0.00000011,0.00089879,0.00106554,-0.00000043,0.01813112,0.35
 950267,0.00000054,0.00000029,0.00439182,0.,0.00000158,0.00171631,0.000
 00185,0.00003434,-0.03297343,0.00000073,0.00000208,0.00686308,0.000000
 04,0.00000056,0.00811659,-0.00000015,-0.00000011,-0.00090816,0.0000001
 1,0.00000003,-0.00034131,-0.00000026,-0.00000042,-0.00231302,-0.000002
 44,-0.00003784,0.02214593,0.00669780,0.02674781,-0.00000261,-0.0037856
 1,0.00127315,-0.00000004,-0.00124712,-0.00029021,0.00000005,-0.0045133
 7,-0.00102164,0.00000018,0.00451804,-0.02766672,0.00000271,-0.05973317
 ,-0.01130833,0.00000141,-0.00005009,0.00057411,0.00000003,-0.00014496,
 0.00145964,-0.00000018,0.00015901,0.00000134,0.,0.05319762,-0.00449841
 ,-0.01263516,0.00000138,0.00307025,0.00124068,0.00000031,-0.00044778,0
 .00025172,-0.00000009,-0.00202196,0.00067730,0.00000055,0.00425595,-0.
 01224561,0.00000164,-0.01288589,-0.33809084,0.00002974,0.00111429,-0.0
 0007808,-0.00000018,-0.00055686,-0.00081913,0.00000009,-0.00002914,-0.
 00021682,-0.00000003,0.01237460,0.35942865,0.00000009,0.00000107,0.000
 47899,-0.00000012,0.00000023,0.00458427,0.00000010,-0.00000002,-0.0009
 8596,0.00000028,0.00000074,0.00688797,-0.00000073,0.00000159,0.0048282
 1,0.00000215,0.00002986,-0.02636501,-0.00000011,-0.00000008,-0.0005927
 3,0.00000002,0.00000009,0.00040224,0.,-0.00000006,-0.00064586,-0.00000
 163,-0.00003264,0.01886082,-0.00589362,0.00105399,-0.00000006,0.001113
 85,0.02463204,-0.00000241,0.00190322,-0.00050854,-0.00000002,0.0000492
 7,0.00024905,-0.00000003,0.00054373,-0.00026921,0.,0.00072600,0.001323
 95,-0.00000012,0.01290518,-0.01474577,0.00000079,-0.09131334,0.0952888
 4,-0.00001087,-0.00020600,-0.00053174,0.00000007,-0.00038814,0.0002706
 4,0.,0.08259473,-0.00008780,0.00006026,0.00000037,-0.00151568,-0.00017
 005,-0.00000015,-0.00005685,0.00029863,-0.00000025,0.00004234,-0.00054
 800,0.00000003,-0.00041345,0.00056390,-0.00000005,-0.00007201,-0.00005
 787,0.00000012,0.01246217,-0.01215580,0.00000030,0.09119853,-0.3246236
 4,0.00003688,0.00037750,-0.00008605,0.,0.00008195,-0.00003490,0.000000
 05,-0.10325562,0.33927309,-0.00000014,0.00000013,0.00315857,-0.0000002
 0,-0.00000031,-0.00018738,-0.00000001,-0.00000016,-0.00154280,-0.00000
 002,0.00000010,-0.00035366,0.00000003,-0.00000015,-0.00004441,0.000000
 04,0.00000009,0.00050321,-0.00000429,0.00000204,0.00023792,-0.00000871
 ,0.00003635,-0.02658709,-0.00000004,0.00000003,0.00005136,-0.00000001,
 0.00000002,0.00020745,0.00001180,-0.00003868,0.02066112,-0.00350887,0.
 00891475,-0.00000118,-0.00744327,-0.00108411,-0.00000006,-0.03919461,-
 0.01512969,0.00000272,-0.24941894,-0.08550770,0.00001180,-0.04017248,-
 0.02299078,0.00000384,0.01204549,-0.00122652,-0.00000008,-0.00599470,-
 0.00741153,0.00000163,0.00647094,-0.00079159,-0.00000035,0.00314721,-0
 .00023971,-0.00000014,-0.00079884,-0.00086029,0.00000005,-0.00013686,0
 .00038153,-0.00000009,0.46721716,-0.00124857,0.00345338,-0.00000051,-0
 .00183505,-0.00723939,0.00000161,0.02625306,0.02237808,-0.00000216,-0.
 04432705,-0.13434798,0.00001109,-0.03571878,-0.03790878,0.00000507,0.0
 0416407,-0.00603448,0.00000105,-0.00317844,-0.00243164,0.00000041,0.00
 372201,0.00107768,-0.00000005,-0.00100245,0.00163723,-0.00000074,-0.00
 174495,-0.00101246,0.00000002,-0.00007812,0.00013048,-0.00000002,-0.07
 295826,0.47711258,0.00000033,-0.00000060,-0.00190798,0.00000043,0.0000
 0156,0.00641427,-0.00000247,-0.00000184,0.00425539,0.00000763,0.000011
 68,-0.03921279,0.00000472,0.00000506,0.00742684,-0.00000066,0.00000117
 ,0.00547514,0.00000037,0.00000030,-0.00046620,-0.00000048,0.00000005,0
 .00140218,0.,-0.00000072,-0.00499387,0.00000019,0.00000005,-0.00072231
 ,0.00000001,-0.00000001,0.00005194,0.00000507,-0.00005153,0.03683264,0
 .00223349,-0.00894420,0.00000144,-0.00893088,0.00206213,-0.00000008,0.
 01155231,-0.00210307,-0.00000020,-0.03506849,0.04373630,-0.00000268,-0
 .32139760,0.11457026,-0.00000453,-0.06909444,0.01263655,0.00000099,-0.
 01610663,0.00540815,0.00000113,0.00173032,-0.00142046,0.00000067,-0.00
 042039,0.00133949,-0.00000023,0.00353743,-0.00006650,-0.00000007,-0.00
 049829,0.00056876,-0.00000007,0.01685900,-0.01937367,0.00000154,0.4077
 7234,0.00099173,-0.00745687,0.00000105,0.00782739,0.00438182,-0.000000
 76,-0.01337125,-0.00466967,0.00000132,0.04264183,-0.05625817,0.0000055
 9,0.11181355,-0.14406927,0.00000498,-0.00846128,0.02810544,-0.00000155
 ,0.00808138,-0.00113907,-0.00000052,-0.00302958,0.00116691,-0.00000028
 ,0.00180672,-0.00143778,0.00000009,0.00162270,0.00260839,-0.00000057,0
 .00016133,-0.00028333,0.00000005,0.01868790,-0.01956620,0.00000166,-0.
 16717681,0.18311187,-0.00000025,0.00000152,0.00703995,-0.00000029,-0.0
 0000076,-0.00206973,0.00000081,0.00000113,0.00482335,-0.00000294,0.000
 00533,0.01485178,-0.00000353,0.00000471,-0.05881156,0.00000229,-0.0000
 0157,0.01151407,-0.00000026,-0.00000003,-0.00035918,0.00000014,0.00000
 005,0.00062937,-0.00000015,-0.00000003,-0.00108814,-0.00000020,-0.0000
 0062,-0.00486730,0.,0.,-0.00000587,-0.00000200,0.00000222,0.00090571,0
 .00000636,-0.00000961,0.03601183,-0.30115372,-0.05720818,0.00000891,-0
 .00701526,-0.04945048,0.00000558,-0.01166613,0.00200462,0.00000097,0.0
 0794819,-0.01364369,0.00000129,0.00154525,0.01454483,-0.00000110,-0.03
 833565,-0.00777291,0.00000096,-0.16544489,0.09253353,0.00000289,-0.013
 64800,0.00893147,-0.00000191,-0.00048200,-0.00016215,-0.00000011,0.002
 53377,-0.00040924,0.00000001,-0.00260854,-0.00250847,0.00000157,-0.007
 35203,-0.00133409,0.00000015,0.00519156,-0.00431995,0.00000035,0.68947
 229,-0.03881062,-0.15153831,0.00001199,-0.02052667,-0.04254414,0.00000
 593,-0.00525891,-0.00596021,0.00000077,0.00380414,-0.00575399,0.000000
 57,0.00981247,0.00180273,-0.00000006,0.00907199,0.02314412,-0.00000191
 ,0.08115384,-0.23544490,0.00001261,-0.01107064,-0.08662959,0.00001033,
 -0.00189639,-0.00091555,0.00000015,-0.00126452,0.00138113,-0.00000036,
 -0.00437522,-0.00308058,0.00000038,-0.00019104,0.00070240,-0.00000007,
 -0.00166004,0.00155727,-0.00000001,0.11315591,0.91285918,0.00001480,0.
 00001191,-0.05086479,0.00000547,0.00000611,0.01118588,-0.00000018,0.00
 000071,0.00165477,-0.00000033,-0.00000011,-0.00130168,0.00000080,0.000
 00099,0.00336877,-0.00000260,-0.00000121,0.00114351,0.00000050,0.00001
 336,-0.05027479,-0.00000050,0.00001102,0.01395309,0.00000023,0.0000001
 3,0.00018774,0.,-0.00000034,-0.00208224,0.00000091,0.00000155,0.004630
 07,0.00000052,0.00000007,0.00037943,-0.00000081,0.00000015,0.00098152,
 -0.00004396,-0.00009892,0.06610052,0.00003704,-0.02707175,0.00000381,-
 0.00614857,-0.00024183,0.00000014,0.00085388,-0.00126532,0.00000018,0.
 00024750,0.00017940,-0.00000006,-0.00100310,-0.00027973,0.00000001,0.0
 0263032,0.00034825,-0.00000023,0.01644464,0.01482724,-0.00000397,-0.00
 277986,0.00566048,-0.00000033,-0.00036137,-0.00015525,0.00000003,-0.00
 045490,0.00067825,-0.00000001,0.00100108,0.00086957,0.00000001,-0.0001
 6806,0.00008329,0.,0.00078572,-0.00015961,0.,-0.12059824,-0.13145362,0
 .00002341,0.10656421,-0.00105808,0.00204596,-0.00000074,-0.00061984,0.
 00190732,0.00000023,0.00078566,0.00000131,0.00000008,-0.00056376,0.000
 45464,-0.00000010,-0.00115922,-0.00067052,0.,0.00142591,0.00096194,-0.
 00000036,-0.01228151,-0.01690666,0.00000302,0.00433884,-0.00120846,-0.
 00000015,0.00002840,0.00012502,0.,-0.00034219,-0.00037265,0.00000009,-
 0.00064248,-0.00033581,0.00000028,0.00053394,0.00017265,0.,0.00081339,
 -0.00019806,0.00000001,-0.12843709,-0.41827718,0.00005665,0.13982078,0
 .43233007,-0.00000174,-0.00000151,-0.00660804,-0.00000046,0.00000041,0
 .00204121,0.00000011,0.00000006,0.00152019,-0.00000010,0.00000008,-0.0
 0027349,0.00000009,-0.00000006,-0.00035619,-0.00000002,-0.00000030,-0.
 00145585,-0.00000085,-0.00000114,-0.00640984,0.00000060,0.00000059,0.0
 0151528,0.,0.00000001,0.00026930,0.00000008,0.00000002,-0.00006098,0.0
 0000011,0.00000035,0.00225358,0.00000012,0.00000001,-0.00000447,-0.000
 00013,0.00000005,0.00013037,0.00002476,0.00006016,0.00032545,-0.000022
 88,-0.00005968,0.00981471,0.01231690,0.01010277,-0.00000203,0.01975107
 ,-0.00798975,-0.00000015,-0.00914731,-0.00245805,0.00000069,0.00004141
 ,-0.01423259,0.00000154,-0.00950629,0.01246863,-0.00000059,0.00221306,
 0.00228356,-0.00000018,-0.18013341,-0.00128587,0.00001824,-0.02697755,
 -0.01076665,-0.00000122,0.00005645,0.00087451,-0.00000012,0.00021791,-
 0.00102270,0.00000009,-0.00050481,0.00170998,0.00000079,0.00658473,0.0
 0320138,-0.00000048,0.01382598,-0.00684782,0.00000012,-0.03091709,0.00
 957474,0.00000069,0.00070140,0.00010584,0.00000057,0.60152157,0.003931
 95,-0.00518669,-0.00000022,-0.00148219,-0.00574203,0.00000195,-0.00138
 540,0.00077218,0.00000016,0.00004436,-0.00157818,0.00000009,-0.0015858
 2,0.00055826,0.00000011,0.00182868,0.00124798,-0.00000004,-0.02012757,
 -0.08237065,0.00000558,-0.02004701,0.00507228,0.00000068,-0.00000599,0
 .00005764,0.00000004,0.00000749,-0.00011623,-0.00000002,0.00088346,-0.
 00129646,-0.00000080,0.00005795,0.00032434,-0.00000008,0.00214791,-0.0
 0076090,-0.00000004,0.02419622,0.00500220,-0.00000413,0.00387058,-0.00
 260939,0.00000080,-0.04619444,0.84006176,-0.00000243,-0.00000020,-0.00
 060527,-0.00000073,0.00000208,0.00475783,0.00000105,0.00000013,0.00251
 447,-0.00000025,0.00000107,-0.00000890,-0.00000002,-0.00000078,0.00103
 128,0.00000077,-0.00000011,0.00298295,0.00000754,0.00000585,-0.0716381
 2,0.00000452,-0.00000266,-0.00041109,0.,0.,0.00013281,0.,0.00000002,-0
 .00006039,-0.00000026,-0.00000035,-0.00396821,-0.00000014,-0.00000019,
 -0.00043249,-0.00000051,0.00000025,-0.00062972,0.00000056,-0.00000097,
 -0.00369554,0.00000016,-0.00000037,-0.00124584,0.00005505,-0.00002549,
 0.22128093,-0.00093698,-0.00313482,-0.00000002,-0.00710976,-0.00116118
 ,0.00000133,0.00221398,0.00117153,-0.00000003,0.00032573,0.00408634,-0
 .00000050,0.00276389,-0.00392743,0.00000022,-0.00030239,-0.00082358,0.
 00000004,-0.03355940,-0.05000023,-0.00000384,-0.00146217,0.00531523,-0
 .00000050,-0.00008134,-0.00035989,0.00000006,-0.00007580,0.00037898,-0
 .00000004,0.00032037,-0.00050844,-0.00000021,-0.00268959,-0.00106088,0
 .00000013,-0.00417874,0.00212021,-0.00000002,-0.00035017,-0.00429590,0
 .00000070,0.00184155,-0.00214433,-0.00000012,-0.15891086,-0.12566736,-
 0.00001764,0.16316575,-0.00522111,-0.00242343,0.00000065,-0.00580954,0
 .00201448,0.00000041,0.00238750,0.00111263,-0.00000007,-0.00006889,0.0
 0399704,-0.00000046,0.00259643,-0.00369368,0.00000021,-0.00035315,-0.0
 0056078,0.00000006,-0.03409009,-0.03178974,-0.00000345,0.00266275,0.00
 620719,-0.00000061,0.00003478,-0.00023684,0.00000004,-0.00008356,0.000
 28498,-0.00000002,0.00028588,0.00040884,-0.00000020,-0.00184559,-0.000
 83268,0.00000010,-0.00384959,0.00197099,-0.00000004,0.00987120,-0.0009
 3847,0.00000122,-0.00358647,0.00161881,0.00000032,-0.14231430,-0.41102
 865,-0.00003862,0.15829379,0.55406003,0.00000041,0.00000022,0.00077705
 ,0.00000009,-0.00000075,-0.00141863,-0.00000033,0.00000006,-0.00058359
 ,0.00000016,-0.00000014,-0.00001116,0.00000021,0.00000006,-0.00009403,
 -0.00000029,-0.00000002,-0.00035254,0.00000198,-0.00000291,0.02067950,
 -0.00000135,0.00000136,0.00264036,0.,-0.00000002,-0.00002317,-0.000000
 01,0.00000002,0.00000388,0.00000001,0.00000001,0.00033719,-0.00000014,
 0.,0.00011477,-0.00000017,0.00000007,0.00006892,0.00000041,0.00000022,
 0.00091669,-0.00000051,0.00000118,-0.00163613,-0.00002194,-0.00003945,
 -0.07488426,0.00001858,0.00003418,0.02820561,-0.00307757,0.00051030,0.
 00000065,-0.00511321,0.00246173,-0.00000045,0.00308507,0.00075743,-0.0
 0000023,0.00023358,0.00498340,-0.00000052,0.00418880,-0.00398926,0.000
 00013,-0.00213298,-0.00150666,0.00000037,-0.04638234,0.03968342,-0.000
 00869,0.00578743,0.00262145,0.00000239,-0.00006897,-0.00038358,0.00000
 003,-0.00008599,0.00045290,-0.00000004,0.00037029,0.00075765,-0.000000
 47,-0.00259613,-0.00127173,0.00000020,-0.00577947,0.00261051,-0.000000
 06,-0.00733590,-0.00573225,0.00000035,0.00041800,-0.00055669,-0.000000
 12,-0.24030515,0.17961124,-0.00004771,0.03875032,0.02086819,0.00000290
 ,0.25971713,0.00100472,0.00207814,-0.00000058,0.00477935,-0.00132547,-
 0.00000017,-0.00197753,-0.00031328,0.00000008,-0.00005879,-0.00290902,
 0.00000032,-0.00218132,0.00229712,-0.00000012,0.00109090,0.00067006,-0
 .00000016,0.02744793,-0.00540075,0.00000407,-0.00677799,-0.00227409,-0
 .00000065,0.00004681,0.00017808,-0.00000003,0.00001780,-0.00020197,0.0
 0000004,0.00022236,0.00193947,0.00000088,0.00133989,0.00070566,-0.0000
 0009,0.00295043,-0.00136090,0.00000005,0.00141033,0.00460435,0.0000006
 6,-0.00199944,0.00097323,-0.00000020,0.19331696,-0.34218855,0.00006031
 ,0.02166788,-0.12030591,0.00000591,-0.24212446,0.46297451,0.00000042,-
 0.00000009,-0.00009227,-0.00000095,-0.00000004,-0.00002911,0.00000021,
 0.00000006,-0.00022499,0.00000010,0.00000043,0.00002037,0.00000054,-0.
 00000027,-0.00019183,-0.00000059,-0.00000021,-0.00069809,-0.00000149,0
 .00000309,0.01821111,0.00000168,0.00000119,-0.00057562,-0.00000001,-0.
 00000004,-0.00000095,0.,0.00000005,0.00002816,0.00000009,-0.00000018,0
 .00057680,-0.00000029,-0.00000013,0.00004132,-0.00000061,0.00000025,0.
 00015328,-0.00000142,-0.00000080,0.00335521,0.00000025,-0.00000016,0.0
 0018800,-0.00005118,0.00006086,-0.07500233,0.00000191,0.00000631,0.025
 23091,0.00005132,-0.00007034,0.02899894,0.00027637,-0.00082860,0.00000
 008,0.00027635,0.00173320,-0.00000020,-0.00473536,-0.00432784,0.000000
 48,-0.05120815,0.03014899,-0.00000307,-0.00717773,-0.00152200,0.000000
 29,-0.00142916,0.00162776,-0.00000015,0.00080058,0.00048678,-0.0000001
 0,-0.00075951,-0.00025848,0.00000007,0.00025452,-0.00011491,-0.0000000
 2,0.00041642,0.00020290,-0.00000003,0.00002188,-0.00003166,0.,-0.15285
 017,0.14770823,-0.00001668,-0.00201322,0.00500105,-0.00000035,0.000216
 55,-0.00003726,0.,-0.00001125,-0.00004758,0.,-0.00082801,-0.00008405,0
 .00000002,0.00027560,0.00022178,0.,0.00032708,-0.00017584,0.00000003,0
 .21814722,-0.00085380,0.00224749,-0.00000026,-0.00029991,-0.00017245,0
 .00000011,-0.00651179,-0.00222051,0.00000056,0.00828727,0.01748049,-0.
 00000214,-0.02614591,0.00107683,0.00000072,0.00719622,-0.00095151,-0.0
 0000013,0.00087351,-0.00145892,0.00000008,0.00042187,-0.00005586,-0.00
 000007,0.00021285,-0.00033312,-0.00000003,-0.00043847,-0.00004899,0.,0
 .00003517,-0.00000217,0.,0.18032087,-0.29832086,0.00003333,0.01836098,
 0.01429755,-0.00000230,-0.00140188,0.00002953,0.00000017,-0.00012482,-
 0.00001222,0.00000003,-0.00052622,-0.00021891,0.00000001,0.00005010,0.
 00013521,0.,0.00024642,-0.00014069,0.00000004,-0.17970247,0.26866911,-
 0.00000003,-0.00000026,0.00020442,-0.00000002,-0.00000001,0.00117083,0
 .00000091,0.00000037,0.00081756,0.00000008,-0.00000192,0.00158777,0.00
 000330,0.,0.00255163,-0.00000086,0.00000013,-0.00049648,-0.00000016,0.
 00000003,-0.00008855,-0.00000002,0.00000013,0.00034501,-0.00000004,-0.
 00000002,-0.00058702,0.00000005,0.00000002,0.00009995,0.,0.,0.00002022
 ,-0.00002123,0.00003379,-0.01555949,-0.00000198,-0.00000223,-0.0092787
 6,0.00000033,0.00000001,0.00003972,0.00000003,0.00000005,-0.00000875,0
 .00000017,0.00000004,-0.00011785,-0.00000005,-0.00000004,0.00002865,-0
 .00000007,0.00000004,0.00001105,0.00001960,-0.00003012,0.01925780\\-0.
 00018079,0.00016927,0.00000025,-0.00022989,-0.00001977,-0.00000665,0.0
 0007278,-0.00003353,-0.00000121,0.00062280,0.00023059,0.00000038,-0.00
 042129,-0.00001120,-0.00000425,0.00039304,-0.00004799,0.00000034,0.000
 24254,-0.00015631,0.00000800,0.00013516,-0.00001121,0.00001112,-0.0000
 5553,0.00003524,0.00000014,0.00000206,0.00000558,0.00000006,-0.0000314
 9,-0.00002138,0.00000177,-0.00042603,-0.00010734,0.00000099,0.00015906
 ,-0.00005491,0.00000222,-0.00019934,0.00011604,0.00000840,-0.00001362,
 0.00000736,0.00000046,-0.00005093,-0.00002856,-0.00007207,-0.00004334,
 0.00006514,0.00002568,-0.00001328,-0.00010801,0.00002506,0.00003810,-0
 .00002901,-0.00000072\\\@


     "IF I COULD JUST GET IT ON PAPER"
 LIFE AND INK, THEY RUN OUT AT THE SAME TIME,
 OR SO SAID MY OLD FRIEND THE SQUID.
     -- JIMMY BUFFETT, 1981
 Job cpu time:       0 days  4 hours 54 minutes  2.4 seconds.
 File lengths (MBytes):  RWF=    377 Int=      0 D2E=      0 Chk=     13 Scr=      2
 Normal termination of Gaussian 09 at Thu Oct 22 11:10:06 2020.
